version 3
run Fifo2-0-20211210-15:04:47-479480
attr configname Fifo2
attr datetime 20211210-15:04:47
attr datetimef 20211210-150447
attr experiment Fifo2
attr inifile omnetpp.ini
attr iterationvars ""
attr iterationvarsd ""
attr iterationvarsf ""
attr measurement ""
attr network FifoNet
attr processid 479480
attr repetition 0
attr replication #0
attr resultdir results
attr runnumber 0
attr seedset 0
config cmdenv-redirect-output true
config sim-time-limit 10s
config description "high job arrival rate"
config **.gen.sendIaTime exponential(0.01s)
config **.fifo.serviceTime 0.01s
config network FifoNet
config sim-time-limit 100h
config cpu-time-limit 300s

vector 0 FifoNet.fifo qlen:vector ETV
attr interpolationmode sample-hold
attr recordingmode vector
attr title "queue length"
vector 1 FifoNet.fifo queueingTime:vector ETV
attr interpolationmode none
attr recordingmode vector
attr title "queueing time at dequeue"
attr unit s
vector 2 FifoNet.sink lifetime:vector ETV
attr interpolationmode none
attr recordingmode vector
attr title "lifetime of arrived jobs"
attr unit s
0	0	0	0
0	4	0.007958745046	1
0	5	0.01	0
0	8	0.016944348931	1
0	9	0.02	0
0	12	0.029503656511	1
0	13	0.03	0
0	20	0.057331929947	1
0	21	0.058099698632	0
0	28	0.084719394706	1
0	29	0.086847383306	0
0	36	0.109019520115	1
0	37	0.113509035248	0
0	40	0.118789584379	1
0	41	0.123509035248	0
0	44	0.129171177386	1
0	45	0.133509035248	0
0	48	0.134022459023	1
0	50	0.139777650992	2
0	52	0.143309242383	3
0	53	0.143509035248	2
0	55	0.153509035248	1
0	57	0.163509035248	0
0	60	0.165544486603	1
0	62	0.166128333294	2
0	63	0.173509035248	1
0	65	0.183509035248	0
0	72	0.202461017501	1
0	74	0.20729703855	2
0	75	0.209277456093	1
0	78	0.213791502033	2
0	79	0.219277456093	1
0	81	0.229277456093	0
0	84	0.229480463209	1
0	85	0.239277456093	0
0	88	0.246202575212	1
0	89	0.249277456093	0
0	92	0.253729316345	1
0	93	0.259277456093	0
0	96	0.260268142017	1
0	98	0.268662470546	2
0	99	0.269277456093	1
0	102	0.273651190636	2
0	103	0.279277456093	1
0	105	0.289277456093	0
0	116	0.318454277692	1
0	118	0.322570057654	2
0	120	0.323481667915	3
0	121	0.327717424137	2
0	124	0.333927792998	3
0	126	0.334132048882	4
0	127	0.337717424137	3
0	130	0.338724530255	4
0	131	0.347717424137	3
0	134	0.356599406889	4
0	135	0.357717424137	3
0	137	0.367717424137	2
0	139	0.377717424137	1
0	141	0.387717424137	0
0	144	0.388101106176	1
0	145	0.397717424137	0
0	148	0.403158948762	1
0	150	0.404671257299	2
0	151	0.407717424137	1
0	153	0.417717424137	0
0	156	0.425074399878	1
0	157	0.427717424137	0
0	168	0.490352632455	1
0	169	0.493935540728	0
0	180	0.528734343371	1
0	181	0.532545048775	0
0	184	0.536083987583	1
0	185	0.542545048775	0
0	188	0.551249347323	1
0	189	0.552545048775	0
0	196	0.563867480834	1
0	197	0.57260873674	0
0	200	0.576619757856	1
0	201	0.58260873674	0
0	204	0.586834076599	1
0	205	0.59260873674	0
0	208	0.595557288549	1
0	210	0.597104585354	2
0	211	0.60260873674	1
0	214	0.604812931939	2
0	215	0.61260873674	1
0	217	0.62260873674	0
0	228	0.655349056438	1
0	230	0.656468518044	2
0	231	0.65797078352	1
0	234	0.661824175246	2
0	235	0.66797078352	1
0	238	0.668241122266	2
0	240	0.671313925788	3
0	242	0.673375958608	4
0	243	0.67797078352	3
0	245	0.68797078352	2
0	248	0.688258506866	3
0	249	0.69797078352	2
0	252	0.701611408712	3
0	254	0.707702232944	4
0	255	0.70797078352	3
0	258	0.710142717851	4
0	259	0.71797078352	3
0	262	0.718546064907	4
0	264	0.71999884518	5
0	266	0.720188530872	6
0	268	0.724106238979	7
0	269	0.72797078352	6
0	272	0.73372004837	7
0	274	0.735341413264	8
0	275	0.73797078352	7
0	278	0.744811380036	8
0	280	0.747325799357	9
0	281	0.74797078352	8
0	284	0.756921279131	9
0	285	0.75797078352	8
0	288	0.761806849624	9
0	289	0.76797078352	8
0	291	0.77797078352	7
0	293	0.78797078352	6
0	296	0.790585999837	7
0	297	0.79797078352	6
0	299	0.80797078352	5
0	302	0.813875133579	6
0	303	0.81797078352	5
0	306	0.825326523126	6
0	307	0.82797078352	5
0	310	0.831303983894	6
0	312	0.835759168845	7
0	313	0.83797078352	6
0	316	0.84525411468	7
0	317	0.84797078352	6
0	320	0.850999438747	7
0	321	0.85797078352	6
0	323	0.86797078352	5
0	326	0.874262949364	6
0	327	0.87797078352	5
0	330	0.886224027359	6
0	332	0.887269639617	7
0	334	0.887890792522	8
0	335	0.88797078352	7
0	337	0.89797078352	6
0	339	0.90797078352	5
0	341	0.91797078352	4
0	344	0.922892929367	5
0	345	0.92797078352	4
0	348	0.933882054043	5
0	349	0.93797078352	4
0	352	0.944470395358	5
0	353	0.94797078352	4
0	356	0.955576369815	5
0	358	0.957450630475	6
0	359	0.95797078352	5
0	362	0.959812697536	6
0	364	0.964246737822	7
0	366	0.965627024706	8
0	367	0.96797078352	7
0	369	0.97797078352	6
0	372	0.979517451604	7
0	374	0.983307071247	8
0	375	0.98797078352	7
0	378	0.992667686845	8
0	380	0.997188707447	9
0	381	0.99797078352	8
0	384	1.00111983302	9
0	385	1.00797078352	8
0	388	1.009564110955	9
0	390	1.009955942519	10
0	392	1.015729185627	11
0	393	1.01797078352	10
0	396	1.025787895679	11
0	397	1.02797078352	10
0	399	1.03797078352	9
0	401	1.04797078352	8
0	403	1.05797078352	7
0	405	1.06797078352	6
0	408	1.070332864141	7
0	409	1.07797078352	6
0	411	1.08797078352	5
0	413	1.09797078352	4
0	416	1.102262330562	5
0	418	1.103338681644	6
0	419	1.10797078352	5
0	422	1.113916945778	6
0	424	1.116259960966	7
0	425	1.11797078352	6
0	428	1.12634015342	7
0	429	1.12797078352	6
0	432	1.128099288874	7
0	433	1.13797078352	6
0	435	1.14797078352	5
0	437	1.15797078352	4
0	439	1.16797078352	3
0	441	1.17797078352	2
0	444	1.181700292376	3
0	445	1.18797078352	2
0	448	1.192287719527	3
0	449	1.19797078352	2
0	452	1.201006878063	3
0	454	1.203927683396	4
0	455	1.20797078352	3
0	458	1.209278330167	4
0	460	1.215557745977	5
0	461	1.21797078352	4
0	464	1.221995555993	5
0	466	1.224798326078	6
0	467	1.22797078352	5
0	470	1.234566966819	6
0	472	1.23629824138	7
0	473	1.23797078352	6
0	476	1.240423253679	7
0	478	1.241592807777	8
0	479	1.24797078352	7
0	482	1.252824490792	8
0	483	1.25797078352	7
0	486	1.263505212763	8
0	488	1.267320771197	9
0	489	1.26797078352	8
0	492	1.26880789389	9
0	493	1.27797078352	8
0	496	1.283874247223	9
0	498	1.286063053188	10
0	499	1.28797078352	9
0	501	1.29797078352	8
0	503	1.30797078352	7
0	506	1.315934952107	8
0	507	1.31797078352	7
0	510	1.320535091684	8
0	511	1.32797078352	7
0	514	1.331397785493	8
0	515	1.33797078352	7
0	517	1.34797078352	6
0	520	1.34860110207	7
0	522	1.348737747854	8
0	524	1.349759196669	9
0	525	1.35797078352	8
0	528	1.359510216011	9
0	529	1.36797078352	8
0	532	1.377708405204	9
0	533	1.37797078352	8
0	535	1.38797078352	7
0	538	1.388906548862	8
0	540	1.389916896615	9
0	541	1.39797078352	8
0	543	1.40797078352	7
0	545	1.41797078352	6
0	548	1.425652780338	7
0	549	1.42797078352	6
0	551	1.43797078352	5
0	553	1.44797078352	4
0	555	1.45797078352	3
0	558	1.463143094934	4
0	559	1.46797078352	3
0	561	1.47797078352	2
0	564	1.484196307942	3
0	565	1.48797078352	2
0	568	1.490519673906	3
0	570	1.497645509839	4
0	571	1.49797078352	3
0	573	1.50797078352	2
0	575	1.51797078352	1
0	577	1.52797078352	0
0	580	1.535264782684	1
0	582	1.535838051948	2
0	583	1.53797078352	1
0	586	1.545122836917	2
0	587	1.54797078352	1
0	590	1.551122305783	2
0	591	1.55797078352	1
0	594	1.564564758505	2
0	596	1.564766659786	3
0	598	1.565166422777	4
0	599	1.56797078352	3
0	602	1.570995206666	4
0	604	1.574319309076	5
0	605	1.57797078352	4
0	607	1.58797078352	3
0	609	1.59797078352	2
0	611	1.60797078352	1
0	614	1.613235010304	2
0	616	1.614515577957	3
0	617	1.61797078352	2
0	620	1.618969772576	3
0	622	1.62248153347	4
0	623	1.62797078352	3
0	626	1.629037996314	4
0	628	1.630301882678	5
0	629	1.63797078352	4
0	632	1.641970617943	5
0	634	1.645797627432	6
0	635	1.64797078352	5
0	637	1.65797078352	4
0	640	1.667039999402	5
0	641	1.66797078352	4
0	644	1.67238884316	5
0	645	1.67797078352	4
0	647	1.68797078352	3
0	650	1.697427960991	4
0	651	1.69797078352	3
0	654	1.698090935006	4
0	656	1.700534889487	5
0	657	1.70797078352	4
0	660	1.712326784758	5
0	661	1.71797078352	4
0	664	1.720655219919	5
0	665	1.72797078352	4
0	668	1.729016195239	5
0	669	1.73797078352	4
0	671	1.74797078352	3
0	674	1.749048600464	4
0	676	1.752132748865	5
0	677	1.75797078352	4
0	680	1.759245228237	5
0	682	1.766652817741	6
0	683	1.76797078352	5
0	685	1.77797078352	4
0	687	1.78797078352	3
0	690	1.791508641311	4
0	692	1.792495144395	5
0	693	1.79797078352	4
0	695	1.80797078352	3
0	698	1.817898189475	4
0	699	1.81797078352	3
0	702	1.826477145886	4
0	704	1.827344850709	5
0	705	1.82797078352	4
0	707	1.83797078352	3
0	709	1.84797078352	2
0	712	1.853837409996	3
0	714	1.857090814151	4
0	715	1.85797078352	3
0	718	1.860926416292	4
0	720	1.861020423799	5
0	721	1.86797078352	4
0	724	1.8720288829	5
0	725	1.87797078352	4
0	727	1.88797078352	3
0	730	1.89050215941	4
0	732	1.891915466546	5
0	733	1.89797078352	4
0	736	1.902333273088	5
0	737	1.90797078352	4
0	740	1.914932611189	5
0	741	1.91797078352	4
0	743	1.92797078352	3
0	746	1.933345435904	4
0	748	1.936761977574	5
0	749	1.93797078352	4
0	752	1.939837154812	5
0	754	1.941860659198	6
0	756	1.946932660431	7
0	757	1.94797078352	6
0	760	1.955763950851	7
0	761	1.95797078352	6
0	764	1.963811924849	7
0	766	1.964015049437	8
0	768	1.965817571957	9
0	769	1.96797078352	8
0	771	1.97797078352	7
0	774	1.983474982681	8
0	775	1.98797078352	7
0	778	1.988092291641	8
0	780	1.988139357046	9
0	782	1.989722772108	10
0	783	1.99797078352	9
0	786	2.001049113528	10
0	787	2.00797078352	9
0	790	2.009479943849	10
0	792	2.012627160458	11
0	793	2.01797078352	10
0	796	2.024792246992	11
0	797	2.02797078352	10
0	799	2.03797078352	9
0	802	2.03807982573	10
0	804	2.041483293112	11
0	805	2.04797078352	10
0	807	2.05797078352	9
0	809	2.06797078352	8
0	812	2.074234724889	9
0	813	2.07797078352	8
0	816	2.079913766424	9
0	818	2.082773976149	10
0	819	2.08797078352	9
0	822	2.096884220242	10
0	823	2.09797078352	9
0	826	2.10546814992	10
0	827	2.10797078352	9
0	830	2.110511587986	10
0	831	2.11797078352	9
0	834	2.119477496694	10
0	835	2.12797078352	9
0	837	2.13797078352	8
0	840	2.142114832453	9
0	841	2.14797078352	8
0	844	2.150607040569	9
0	845	2.15797078352	8
0	848	2.160793627869	9
0	850	2.163317827798	10
0	851	2.16797078352	9
0	853	2.17797078352	8
0	856	2.185532896783	9
0	857	2.18797078352	8
0	859	2.19797078352	7
0	861	2.20797078352	6
0	864	2.216055713352	7
0	865	2.21797078352	6
0	868	2.227451792987	7
0	869	2.22797078352	6
0	872	2.233378033262	7
0	873	2.23797078352	6
0	876	2.239341827205	7
0	877	2.24797078352	6
0	879	2.25797078352	5
0	882	2.258076426004	6
0	883	2.26797078352	5
0	885	2.27797078352	4
0	887	2.28797078352	3
0	890	2.296506491836	4
0	891	2.29797078352	3
0	893	2.30797078352	2
0	896	2.308528877508	3
0	898	2.309764143982	4
0	900	2.313294345315	5
0	901	2.31797078352	4
0	904	2.327862530901	5
0	905	2.32797078352	4
0	907	2.33797078352	3
0	910	2.344671752946	4
0	911	2.34797078352	3
0	914	2.349978977912	4
0	916	2.35502916539	5
0	917	2.35797078352	4
0	920	2.366281985558	5
0	921	2.36797078352	4
0	923	2.37797078352	3
0	926	2.387576979519	4
0	927	2.38797078352	3
0	930	2.39045108428	4
0	931	2.39797078352	3
0	934	2.399156442543	4
0	936	2.402913830967	5
0	937	2.40797078352	4
0	939	2.41797078352	3
0	942	2.424262135467	4
0	943	2.42797078352	3
0	945	2.43797078352	2
0	947	2.44797078352	1
0	950	2.457905839998	2
0	951	2.45797078352	1
0	953	2.46797078352	0
0	956	2.469699669334	1
0	957	2.47797078352	0
0	960	2.478578283438	1
0	961	2.48797078352	0
0	964	2.491497376126	1
0	965	2.49797078352	0
0	968	2.502275724967	1
0	969	2.50797078352	0
0	972	2.509233719576	1
0	974	2.516852397289	2
0	975	2.51797078352	1
0	977	2.52797078352	0
0	984	2.550727653283	1
0	985	2.558107080866	0
0	988	2.561055623389	1
0	990	2.566078731372	2
0	991	2.568107080866	1
0	994	2.571592691273	2
0	995	2.578107080866	1
0	998	2.581237226928	2
0	999	2.588107080866	1
0	1002	2.590561255732	2
0	1004	2.597002302815	3
0	1006	2.597196100628	4
0	1007	2.598107080866	3
0	1010	2.603547377784	4
0	1012	2.607136649943	5
0	1013	2.608107080866	4
0	1015	2.618107080866	3
0	1018	2.619727085116	4
0	1019	2.628107080866	3
0	1022	2.630520287103	4
0	1024	2.633916934429	5
0	1026	2.637342930676	6
0	1027	2.638107080866	5
0	1030	2.642179287542	6
0	1031	2.648107080866	5
0	1034	2.6518030381	6
0	1035	2.658107080866	5
0	1038	2.665632830165	6
0	1039	2.668107080866	5
0	1042	2.671232440866	6
0	1043	2.678107080866	5
0	1045	2.688107080866	4
0	1048	2.692306916916	5
0	1050	2.6937626567	6
0	1052	2.694848127685	7
0	1053	2.698107080866	6
0	1056	2.698390369007	7
0	1058	2.699359596553	8
0	1060	2.707798481279	9
0	1061	2.708107080866	8
0	1064	2.712168761417	9
0	1065	2.718107080866	8
0	1068	2.7211060522	9
0	1069	2.728107080866	8
0	1072	2.729131572058	9
0	1074	2.737672369414	10
0	1076	2.738014403598	11
0	1077	2.738107080866	10
0	1079	2.748107080866	9
0	1082	2.748604497452	10
0	1083	2.758107080866	9
0	1085	2.768107080866	8
0	1087	2.778107080866	7
0	1090	2.783329852245	8
0	1091	2.788107080866	7
0	1094	2.793888348332	8
0	1096	2.797759649253	9
0	1097	2.798107080866	8
0	1100	2.803405754264	9
0	1102	2.805906569214	10
0	1103	2.808107080866	9
0	1105	2.818107080866	8
0	1107	2.828107080866	7
0	1110	2.828592909141	8
0	1112	2.830115845394	9
0	1114	2.834697574234	10
0	1116	2.835720780383	11
0	1117	2.838107080866	10
0	1120	2.841445395897	11
0	1121	2.848107080866	10
0	1123	2.858107080866	9
0	1125	2.868107080866	8
0	1127	2.878107080866	7
0	1130	2.882823493502	8
0	1131	2.888107080866	7
0	1133	2.898107080866	6
0	1136	2.905072640074	7
0	1138	2.908088299206	8
0	1139	2.908107080866	7
0	1141	2.918107080866	6
0	1144	2.924497274985	7
0	1145	2.928107080866	6
0	1148	2.93219804358	7
0	1149	2.938107080866	6
0	1152	2.944368238533	7
0	1153	2.948107080866	6
0	1156	2.950308973516	7
0	1158	2.951365099952	8
0	1160	2.952413918308	9
0	1161	2.958107080866	8
0	1163	2.968107080866	7
0	1166	2.977606739609	8
0	1167	2.978107080866	7
0	1170	2.981950196168	8
0	1171	2.988107080866	7
0	1174	2.994476271417	8
0	1175	2.998107080866	7
0	1178	3.000810897594	8
0	1179	3.008107080866	7
0	1181	3.018107080866	6
0	1183	3.028107080866	5
0	1185	3.038107080866	4
0	1187	3.048107080866	3
0	1189	3.058107080866	2
0	1191	3.068107080866	1
0	1194	3.068464802793	2
0	1195	3.078107080866	1
0	1198	3.086862130644	2
0	1199	3.088107080866	1
0	1202	3.088480831511	2
0	1203	3.098107080866	1
0	1205	3.108107080866	0
0	1208	3.111982604409	1
0	1209	3.118107080866	0
0	1216	3.132624521709	1
0	1218	3.13439777746	2
0	1220	3.141496956732	3
0	1221	3.14224169258	2
0	1224	3.151056620971	3
0	1225	3.15224169258	2
0	1228	3.15288200699	3
0	1230	3.154203844086	4
0	1231	3.16224169258	3
0	1234	3.169302078642	4
0	1235	3.17224169258	3
0	1237	3.18224169258	2
0	1240	3.188141367508	3
0	1241	3.19224169258	2
0	1243	3.20224169258	1
0	1246	3.208161232463	2
0	1247	3.21224169258	1
0	1249	3.22224169258	0
0	1252	3.224628423476	1
0	1254	3.229928452257	2
0	1255	3.23224169258	1
0	1258	3.238347261874	2
0	1260	3.239855171976	3
0	1261	3.24224169258	2
0	1264	3.245083872277	3
0	1266	3.245421740133	4
0	1268	3.246138493976	5
0	1269	3.25224169258	4
0	1271	3.26224169258	3
0	1273	3.27224169258	2
0	1275	3.28224169258	1
0	1278	3.286636962364	2
0	1279	3.29224169258	1
0	1282	3.298591348027	2
0	1283	3.30224169258	1
0	1286	3.303264073691	2
0	1288	3.309307064409	3
0	1289	3.31224169258	2
0	1292	3.31475563569	3
0	1293	3.32224169258	2
0	1296	3.327558977728	3
0	1298	3.32807810325	4
0	1299	3.33224169258	3
0	1301	3.34224169258	2
0	1304	3.348205830612	3
0	1305	3.35224169258	2
0	1308	3.35275494906	3
0	1309	3.36224169258	2
0	1311	3.37224169258	1
0	1313	3.38224169258	0
0	1316	3.389854554979	1
0	1318	3.390022232639	2
0	1319	3.39224169258	1
0	1321	3.40224169258	0
0	1324	3.409388005014	1
0	1326	3.412011298106	2
0	1328	3.412129130425	3
0	1329	3.41224169258	2
0	1331	3.42224169258	1
0	1334	3.426607071245	2
0	1336	3.43106959945	3
0	1337	3.43224169258	2
0	1339	3.44224169258	1
0	1341	3.45224169258	0
0	1344	3.459915716971	1
0	1345	3.46224169258	0
0	1356	3.488754563883	1
0	1358	3.49290068931	2
0	1359	3.496871614131	1
0	1362	3.50026200031	2
0	1363	3.506871614131	1
0	1366	3.506986605478	2
0	1368	3.507545306007	3
0	1370	3.511685095234	4
0	1372	3.513916487315	5
0	1374	3.51589478239	6
0	1376	3.516081737094	7
0	1377	3.516871614131	6
0	1380	3.517956926606	7
0	1381	3.526871614131	6
0	1384	3.533741053827	7
0	1385	3.536871614131	6
0	1388	3.539967027267	7
0	1390	3.542502084318	8
0	1391	3.546871614131	7
0	1393	3.556871614131	6
0	1396	3.563262394922	7
0	1397	3.566871614131	6
0	1400	3.567498965936	7
0	1401	3.576871614131	6
0	1403	3.586871614131	5
0	1406	3.59634440882	6
0	1407	3.596871614131	5
0	1409	3.606871614131	4
0	1411	3.616871614131	3
0	1414	3.622666597445	4
0	1415	3.626871614131	3
0	1418	3.632037984622	4
0	1419	3.636871614131	3
0	1422	3.644225952655	4
0	1423	3.646871614131	3
0	1426	3.653305592928	4
0	1428	3.653629160974	5
0	1429	3.656871614131	4
0	1431	3.666871614131	3
0	1434	3.668937473237	4
0	1436	3.670737046653	5
0	1437	3.676871614131	4
0	1440	3.677669044348	5
0	1441	3.686871614131	4
0	1444	3.687383865929	5
0	1446	3.687900694987	6
0	1448	3.696509931354	7
0	1449	3.696871614131	6
0	1451	3.706871614131	5
0	1454	3.708519640419	6
0	1456	3.711236321122	7
0	1457	3.716871614131	6
0	1459	3.726871614131	5
0	1461	3.736871614131	4
0	1463	3.746871614131	3
0	1465	3.756871614131	2
0	1468	3.760027650002	3
0	1469	3.766871614131	2
0	1471	3.776871614131	1
0	1473	3.786871614131	0
0	1476	3.787241132561	1
0	1478	3.790350810611	2
0	1479	3.796871614131	1
0	1482	3.799869107686	2
0	1483	3.806871614131	1
0	1486	3.811235072639	2
0	1487	3.816871614131	1
0	1490	3.818905869185	2
0	1491	3.826871614131	1
0	1493	3.836871614131	0
0	1496	3.83887758886	1
0	1497	3.846871614131	0
0	1500	3.847791374629	1
0	1501	3.856871614131	0
0	1504	3.861688145267	1
0	1505	3.866871614131	0
0	1508	3.874785998981	1
0	1509	3.876871614131	0
0	1516	3.911904207279	1
0	1517	3.91816534232	0
0	1520	3.919984007813	1
0	1522	3.92506265904	2
0	1524	3.927450187768	3
0	1525	3.92816534232	2
0	1528	3.929805433502	3
0	1530	3.932321419633	4
0	1532	3.934381740118	5
0	1534	3.936850332806	6
0	1535	3.93816534232	5
0	1537	3.94816534232	4
0	1539	3.95816534232	3
0	1542	3.965741088725	4
0	1543	3.96816534232	3
0	1546	3.974170876479	4
0	1547	3.97816534232	3
0	1550	3.987624350811	4
0	1551	3.98816534232	3
0	1554	3.993641140676	4
0	1555	3.99816534232	3
0	1558	4.000383586372	4
0	1559	4.00816534232	3
0	1561	4.01816534232	2
0	1563	4.02816534232	1
0	1566	4.035528373177	2
0	1568	4.038108500816	3
0	1569	4.03816534232	2
0	1571	4.04816534232	1
0	1574	4.049519879845	2
0	1576	4.052454956364	3
0	1578	4.053346499264	4
0	1580	4.053944308893	5
0	1582	4.054525032514	6
0	1583	4.05816534232	5
0	1586	4.060224008167	6
0	1588	4.066915145404	7
0	1589	4.06816534232	6
0	1592	4.070651843348	7
0	1593	4.07816534232	6
0	1595	4.08816534232	5
0	1598	4.091938544293	6
0	1599	4.09816534232	5
0	1602	4.10385712533	6
0	1603	4.10816534232	5
0	1605	4.11816534232	4
0	1607	4.12816534232	3
0	1609	4.13816534232	2
0	1612	4.141324071468	3
0	1614	4.146068234371	4
0	1615	4.14816534232	3
0	1618	4.155682630087	4
0	1620	4.15766230744	5
0	1621	4.15816534232	4
0	1624	4.165482064649	5
0	1626	4.165731948182	6
0	1627	4.16816534232	5
0	1629	4.17816534232	4
0	1632	4.185015549551	5
0	1634	4.185711726262	6
0	1635	4.18816534232	5
0	1637	4.19816534232	4
0	1640	4.199331043505	5
0	1641	4.20816534232	4
0	1644	4.21070642856	5
0	1646	4.217218735879	6
0	1647	4.21816534232	5
0	1650	4.223264548062	6
0	1651	4.22816534232	5
0	1654	4.234568103521	6
0	1655	4.23816534232	5
0	1658	4.242259301532	6
0	1659	4.24816534232	5
0	1662	4.251599904858	6
0	1663	4.25816534232	5
0	1665	4.26816534232	4
0	1668	4.274298305016	5
0	1669	4.27816534232	4
0	1672	4.286840337717	5
0	1673	4.28816534232	4
0	1675	4.29816534232	3
0	1677	4.30816534232	2
0	1679	4.31816534232	1
0	1681	4.32816534232	0
0	1684	4.333236862981	1
0	1685	4.33816534232	0
0	1688	4.339576163175	1
0	1690	4.342021073395	2
0	1692	4.348109402532	3
0	1693	4.34816534232	2
0	1695	4.35816534232	1
0	1698	4.358988446868	2
0	1699	4.36816534232	1
0	1701	4.37816534232	0
0	1704	4.382677628576	1
0	1706	4.385733677594	2
0	1708	4.387209637923	3
0	1710	4.387418310109	4
0	1711	4.38816534232	3
0	1714	4.390021824224	4
0	1715	4.39816534232	3
0	1718	4.40422565878	4
0	1719	4.40816534232	3
0	1721	4.41816534232	2
0	1724	4.425561291655	3
0	1725	4.42816534232	2
0	1728	4.429418168595	3
0	1729	4.43816534232	2
0	1731	4.44816534232	1
0	1734	4.452896606209	2
0	1736	4.457732990084	3
0	1737	4.45816534232	2
0	1740	4.468111490839	3
0	1741	4.46816534232	2
0	1744	4.476986510124	3
0	1745	4.47816534232	2
0	1748	4.480912240406	3
0	1749	4.48816534232	2
0	1751	4.49816534232	1
0	1754	4.498693673774	2
0	1756	4.506027350506	3
0	1757	4.50816534232	2
0	1760	4.515942393435	3
0	1762	4.515942946954	4
0	1763	4.51816534232	3
0	1765	4.52816534232	2
0	1768	4.536551159363	3
0	1769	4.53816534232	2
0	1772	4.540288792301	3
0	1774	4.54348453885	4
0	1775	4.54816534232	3
0	1778	4.54902624714	4
0	1779	4.55816534232	3
0	1782	4.565023441558	4
0	1783	4.56816534232	3
0	1785	4.57816534232	2
0	1788	4.586681078367	3
0	1789	4.58816534232	2
0	1792	4.588734556054	3
0	1793	4.59816534232	2
0	1796	4.600125132561	3
0	1797	4.60816534232	2
0	1799	4.61816534232	1
0	1801	4.62816534232	0
0	1804	4.630656979257	1
0	1806	4.636747425384	2
0	1807	4.63816534232	1
0	1809	4.64816534232	0
0	1812	4.648378558218	1
0	1814	4.654983589015	2
0	1816	4.657410773952	3
0	1817	4.65816534232	2
0	1819	4.66816534232	1
0	1822	4.67295740333	2
0	1823	4.67816534232	1
0	1825	4.68816534232	0
0	1832	4.705008607398	1
0	1833	4.712402206104	0
0	1836	4.718133687328	1
0	1837	4.722402206104	0
0	1844	4.742290668452	1
0	1846	4.746054961967	2
0	1848	4.748454197161	3
0	1849	4.749361153867	2
0	1851	4.759361153867	1
0	1853	4.769361153867	0
0	1860	4.787327429227	1
0	1861	4.790025152575	0
0	1864	4.793709315283	1
0	1866	4.793969292735	2
0	1867	4.800025152575	1
0	1870	4.806402800514	2
0	1872	4.808728050698	3
0	1873	4.810025152575	2
0	1876	4.81039679711	3
0	1878	4.815925180817	4
0	1879	4.820025152575	3
0	1882	4.829034904499	4
0	1883	4.830025152575	3
0	1886	4.833721669259	4
0	1887	4.840025152575	3
0	1890	4.844113725625	4
0	1891	4.850025152575	3
0	1894	4.850342018723	4
0	1896	4.852761215171	5
0	1898	4.856013375351	6
0	1900	4.858076955287	7
0	1901	4.860025152575	6
0	1904	4.866914811847	7
0	1905	4.870025152575	6
0	1907	4.880025152575	5
0	1910	4.883395573579	6
0	1911	4.890025152575	5
0	1913	4.900025152575	4
0	1916	4.903335965592	5
0	1917	4.910025152575	4
0	1920	4.91708276513	5
0	1922	4.918333091029	6
0	1923	4.920025152575	5
0	1926	4.929567696024	6
0	1927	4.930025152575	5
0	1930	4.936852934451	6
0	1931	4.940025152575	5
0	1934	4.940094925586	6
0	1936	4.941511345934	7
0	1938	4.943433960342	8
0	1939	4.950025152575	7
0	1942	4.956052087077	8
0	1943	4.960025152575	7
0	1946	4.968242080529	8
0	1947	4.970025152575	7
0	1950	4.973284879862	8
0	1952	4.979505249053	9
0	1953	4.980025152575	8
0	1956	4.987839031459	9
0	1957	4.990025152575	8
0	1959	5.000025152575	7
0	1962	5.006191665488	8
0	1964	5.008216253125	9
0	1965	5.010025152575	8
0	1968	5.010508696377	9
0	1970	5.012073454081	10
0	1972	5.013876197077	11
0	1973	5.020025152575	10
0	1976	5.020571602986	11
0	1978	5.021905009219	12
0	1980	5.026299563124	13
0	1981	5.030025152575	12
0	1984	5.039103806664	13
0	1985	5.040025152575	12
0	1987	5.050025152575	11
0	1989	5.060025152575	10
0	1992	5.067310166148	11
0	1994	5.067619429064	12
0	1995	5.070025152575	11
0	1997	5.080025152575	10
0	2000	5.082114976828	11
0	2001	5.090025152575	10
0	2004	5.095858406972	11
0	2005	5.100025152575	10
0	2008	5.109668037929	11
0	2009	5.110025152575	10
0	2012	5.110639714713	11
0	2013	5.120025152575	10
0	2015	5.130025152575	9
0	2018	5.13404463432	10
0	2020	5.136496615246	11
0	2022	5.137367701079	12
0	2023	5.140025152575	11
0	2025	5.150025152575	10
0	2028	5.151200865741	11
0	2030	5.159234783368	12
0	2031	5.160025152575	11
0	2033	5.170025152575	10
0	2036	5.172391045951	11
0	2037	5.180025152575	10
0	2040	5.181173196738	11
0	2042	5.181640074174	12
0	2043	5.190025152575	11
0	2045	5.200025152575	10
0	2047	5.210025152575	9
0	2050	5.214325038182	10
0	2052	5.216671596675	11
0	2053	5.220025152575	10
0	2056	5.220126792512	11
0	2058	5.22350833966	12
0	2060	5.22626361903	13
0	2061	5.230025152575	12
0	2064	5.237572803822	13
0	2066	5.238629675563	14
0	2068	5.239280804211	15
0	2070	5.239446465155	16
0	2071	5.240025152575	15
0	2074	5.247557875377	16
0	2075	5.250025152575	15
0	2077	5.260025152575	14
0	2079	5.270025152575	13
0	2082	5.274083460532	14
0	2084	5.274176290776	15
0	2085	5.280025152575	14
0	2088	5.285260388318	15
0	2089	5.290025152575	14
0	2091	5.300025152575	13
0	2094	5.303160284363	14
0	2095	5.310025152575	13
0	2098	5.318538571508	14
0	2099	5.320025152575	13
0	2101	5.330025152575	12
0	2103	5.340025152575	11
0	2105	5.350025152575	10
0	2107	5.360025152575	9
0	2110	5.360098282464	10
0	2112	5.363407381276	11
0	2113	5.370025152575	10
0	2116	5.37556428601	11
0	2117	5.380025152575	10
0	2120	5.38439309146	11
0	2122	5.386397513411	12
0	2124	5.387058433518	13
0	2125	5.390025152575	12
0	2128	5.394240898319	13
0	2129	5.400025152575	12
0	2132	5.400888975815	13
0	2134	5.40957463313	14
0	2135	5.410025152575	13
0	2137	5.420025152575	12
0	2139	5.430025152575	11
0	2141	5.440025152575	10
0	2144	5.447514870961	11
0	2145	5.450025152575	10
0	2147	5.460025152575	9
0	2150	5.463004987753	10
0	2151	5.470025152575	9
0	2153	5.480025152575	8
0	2156	5.483920553479	9
0	2157	5.490025152575	8
0	2160	5.493246672032	9
0	2162	5.497373970699	10
0	2164	5.499838128921	11
0	2165	5.500025152575	10
0	2167	5.510025152575	9
0	2169	5.520025152575	8
0	2171	5.530025152575	7
0	2174	5.532427338693	8
0	2176	5.538500131579	9
0	2177	5.540025152575	8
0	2180	5.541135902707	9
0	2181	5.550025152575	8
0	2183	5.560025152575	7
0	2186	5.562244790451	8
0	2187	5.570025152575	7
0	2189	5.580025152575	6
0	2191	5.590025152575	5
0	2194	5.592066797206	6
0	2196	5.598844817227	7
0	2197	5.600025152575	6
0	2199	5.610025152575	5
0	2201	5.620025152575	4
0	2204	5.627211219161	5
0	2205	5.630025152575	4
0	2208	5.639783589117	5
0	2209	5.640025152575	4
0	2211	5.650025152575	3
0	2214	5.655838176748	4
0	2215	5.660025152575	3
0	2218	5.662496601614	4
0	2219	5.670025152575	3
0	2222	5.672451238048	4
0	2223	5.680025152575	3
0	2226	5.684780042678	4
0	2227	5.690025152575	3
0	2229	5.700025152575	2
0	2232	5.705517657309	3
0	2233	5.710025152575	2
0	2236	5.712412002687	3
0	2238	5.715879535725	4
0	2239	5.720025152575	3
0	2241	5.730025152575	2
0	2244	5.734493852155	3
0	2245	5.740025152575	2
0	2247	5.750025152575	1
0	2250	5.753394869136	2
0	2252	5.755555831302	3
0	2253	5.760025152575	2
0	2256	5.765175950568	3
0	2257	5.770025152575	2
0	2260	5.780018375395	3
0	2261	5.780025152575	2
0	2264	5.780151627843	3
0	2265	5.790025152575	2
0	2267	5.800025152575	1
0	2269	5.810025152575	0
0	2272	5.816748201151	1
0	2273	5.820025152575	0
0	2276	5.821013559271	1
0	2277	5.830025152575	0
0	2284	5.842444389262	1
0	2285	5.850841048317	0
0	2288	5.85760507856	1
0	2289	5.860841048317	0
0	2300	5.946211142795	1
0	2301	5.949703169371	0
0	2308	5.96709733455	1
0	2310	5.967137897763	2
0	2311	5.970217899765	1
0	2314	5.977339768643	2
0	2315	5.980217899765	1
0	2318	5.980479747624	2
0	2320	5.985077660802	3
0	2321	5.990217899765	2
0	2324	5.990362333085	3
0	2326	5.991834583458	4
0	2328	5.997424660158	5
0	2329	6.000217899765	4
0	2331	6.010217899765	3
0	2334	6.014690993955	4
0	2336	6.018226959708	5
0	2337	6.020217899765	4
0	2340	6.02033229259	5
0	2342	6.025459439016	6
0	2343	6.030217899765	5
0	2346	6.032619892196	6
0	2348	6.033905694569	7
0	2350	6.036445808353	8
0	2351	6.040217899765	7
0	2353	6.050217899765	6
0	2355	6.060217899765	5
0	2357	6.070217899765	4
0	2360	6.075922141029	5
0	2362	6.076951824666	6
0	2363	6.080217899765	5
0	2366	6.082162612877	6
0	2367	6.090217899765	5
0	2369	6.100217899765	4
0	2372	6.101981516288	5
0	2373	6.110217899765	4
0	2376	6.110402879316	5
0	2377	6.120217899765	4
0	2379	6.130217899765	3
0	2381	6.140217899765	2
0	2384	6.146492289366	3
0	2385	6.150217899765	2
0	2388	6.150702222346	3
0	2389	6.160217899765	2
0	2391	6.170217899765	1
0	2393	6.180217899765	0
0	2396	6.183101852015	1
0	2397	6.190217899765	0
0	2400	6.198654795619	1
0	2401	6.200217899765	0
0	2408	6.227658287218	1
0	2409	6.232358671425	0
0	2416	6.246984078155	1
0	2418	6.251035906978	2
0	2419	6.252532584761	1
0	2422	6.256135815316	2
0	2424	6.256981610234	3
0	2426	6.260574549285	4
0	2427	6.262532584761	3
0	2430	6.265804225822	4
0	2431	6.272532584761	3
0	2434	6.280730547464	4
0	2435	6.282532584761	3
0	2438	6.283373252105	4
0	2439	6.292532584761	3
0	2441	6.302532584761	2
0	2444	6.309438970128	3
0	2446	6.310860225242	4
0	2447	6.312532584761	3
0	2450	6.314795249353	4
0	2452	6.315344323079	5
0	2453	6.322532584761	4
0	2455	6.332532584761	3
0	2457	6.342532584761	2
0	2460	6.345892920869	3
0	2461	6.352532584761	2
0	2464	6.358824399457	3
0	2466	6.358964865369	4
0	2468	6.359079797871	5
0	2469	6.362532584761	4
0	2472	6.366704034713	5
0	2473	6.372532584761	4
0	2476	6.381426076293	5
0	2477	6.382532584761	4
0	2480	6.385058498482	5
0	2482	6.386647830279	6
0	2483	6.392532584761	5
0	2485	6.402532584761	4
0	2488	6.408091684924	5
0	2490	6.408920307653	6
0	2492	6.411805434756	7
0	2493	6.412532584761	6
0	2496	6.412744180229	7
0	2497	6.422532584761	6
0	2500	6.424057967905	7
0	2501	6.432532584761	6
0	2504	6.435206842124	7
0	2505	6.442532584761	6
0	2508	6.451836499931	7
0	2509	6.452532584761	6
0	2512	6.454651740156	7
0	2514	6.460310685572	8
0	2515	6.462532584761	7
0	2518	6.46576726272	8
0	2519	6.472532584761	7
0	2522	6.479715953633	8
0	2523	6.482532584761	7
0	2526	6.487866136942	8
0	2527	6.492532584761	7
0	2529	6.502532584761	6
0	2532	6.505562335174	7
0	2533	6.512532584761	6
0	2535	6.522532584761	5
0	2538	6.52526291083	6
0	2540	6.530027696656	7
0	2541	6.532532584761	6
0	2543	6.542532584761	5
0	2546	6.543012153012	6
0	2548	6.544027493851	7
0	2550	6.547179094138	8
0	2552	6.55013811287	9
0	2554	6.551547791714	10
0	2555	6.552532584761	9
0	2558	6.560511083764	10
0	2560	6.561080749089	11
0	2561	6.562532584761	10
0	2564	6.567552496129	11
0	2566	6.571142109313	12
0	2567	6.572532584761	11
0	2570	6.577835138033	12
0	2572	6.580874853625	13
0	2573	6.582532584761	12
0	2576	6.587009244521	13
0	2577	6.592532584761	12
0	2580	6.593099889074	13
0	2582	6.600535720992	14