version 3
run Fifo2-0-20211218-16:50:49-61913
attr configname Fifo2
attr datetime 20211218-16:50:49
attr datetimef 20211218-165049
attr experiment Fifo2
attr inifile omnetpp.ini
attr iterationvars ""
attr iterationvarsd ""
attr iterationvarsf ""
attr measurement ""
attr network SingleQueue
attr processid 61913
attr repetition 0
attr replication #0
attr resultdir results
attr runnumber 0
attr seedset 0
config cmdenv-redirect-output true
config sim-time-limit 15s
config description "high job arrival rate"
config network SingleQueue
config **.source.interarrivalTime exponential(0.1s)
config **.fifo.serviceTime 0.1s
config sim-time-limit 100h
config cpu-time-limit 300s

vector 0 SingleQueue.fifo qlen:vector ETV
attr interpolationmode sample-hold
attr recordingmode vector
attr title "queue length"
vector 1 SingleQueue.fifo queueingTime:vector ETV
attr interpolationmode none
attr recordingmode vector
attr title "queueing time"
attr unit s
vector 2 SingleQueue.sink lifetime:vector ETV
attr interpolationmode none
attr recordingmode vector
attr title "lifetime of arrived jobs"
attr unit s
0	0	0	0
0	4	0.079587450457	1
0	5	0.1	0
0	8	0.169443489305	1
0	9	0.2	0
0	12	0.29503656511	1
0	13	0.3	0
0	20	0.573319299464	1
0	21	0.580996986317	0
0	28	0.84719394705	1
0	29	0.868473833052	0
0	36	1.090195201137	1
0	37	1.13509035247	0
0	40	1.187895843776	1
0	41	1.23509035247	0
0	44	1.291711773842	1
0	45	1.33509035247	0
0	48	1.340224590214	1
0	50	1.397776509902	2
0	52	1.433092423816	3
0	53	1.43509035247	2
0	55	1.53509035247	1
0	57	1.63509035247	0
0	60	1.65544486602	1
0	62	1.661283332929	2
0	63	1.73509035247	1
0	65	1.83509035247	0
0	72	2.024610175006	1
0	74	2.072970385501	2
0	75	2.092774560922	1
0	78	2.137915020326	2
0	79	2.192774560922	1
0	81	2.292774560922	0
0	84	2.294804632088	1
0	85	2.392774560922	0
0	88	2.46202575212	1
0	89	2.492774560922	0
0	92	2.537293163451	1
0	93	2.592774560922	0
0	96	2.602681420173	1
0	98	2.686624705463	2
0	99	2.692774560922	1
0	102	2.736511906365	2
0	103	2.792774560922	1
0	105	2.892774560922	0
0	116	3.184542776924	1
0	118	3.225700576548	2
0	120	3.23481667916	3
0	121	3.277174241377	2
0	124	3.339277929991	3
0	126	3.341320488831	4
0	127	3.377174241377	3
0	130	3.387245302557	4
0	131	3.477174241377	3
0	134	3.565994068901	4
0	135	3.577174241377	3
0	137	3.677174241377	2
0	139	3.777174241377	1
0	141	3.877174241377	0
0	144	3.881011061769	1
0	145	3.977174241377	0
0	148	4.031589487633	1
0	150	4.046712572999	2
0	151	4.077174241377	1
0	153	4.177174241377	0
0	156	4.250743998793	1
0	157	4.277174241377	0
0	168	4.903526324566	1
0	169	4.939355407298	0
0	180	5.287343433724	1
0	181	5.325450487761	0
0	184	5.360839875843	1
0	185	5.425450487761	0
0	188	5.512493473242	1
0	189	5.525450487761	0
0	196	5.638674808357	1
0	197	5.726087367413	0
0	200	5.766197578579	1
0	201	5.826087367413	0
0	204	5.868340766014	1
0	205	5.926087367413	0
0	208	5.955572885518	1
0	210	5.971045853568	2
0	211	6.026087367413	1
0	214	6.048129319415	2
0	215	6.126087367413	1
0	217	6.226087367413	0
0	228	6.553490564399	1
0	230	6.564685180462	2
0	231	6.579707835223	1
0	234	6.618241752485	2
0	235	6.679707835223	1
0	238	6.682411222688	2
0	240	6.713139257903	3
0	242	6.733759586106	4
0	243	6.779707835223	3
0	245	6.879707835223	2
0	248	6.882585068681	3
0	249	6.979707835223	2
0	252	7.016114087143	3
0	254	7.077022329461	4
0	255	7.079707835223	3
0	258	7.101427178535	4
0	259	7.179707835223	3
0	262	7.185460649096	4
0	264	7.199988451825	5
0	266	7.201885308745	6
0	268	7.241062389813	7
0	269	7.279707835223	6
0	272	7.33720048372	7
0	274	7.353414132665	8
0	275	7.379707835223	7
0	278	7.448113800382	8
0	280	7.473257993589	9
0	281	7.479707835223	8
0	284	7.569212791326	9
0	285	7.579707835223	8
0	288	7.618068496257	9
0	289	7.679707835223	8
0	291	7.779707835223	7
0	293	7.879707835223	6
0	296	7.905859998385	7
0	297	7.979707835223	6
0	299	8.079707835223	5
0	302	8.138751335806	6
0	303	8.179707835223	5
0	306	8.253265231276	6
0	307	8.279707835223	5
0	310	8.313039838958	6
0	312	8.357591688463	7
0	313	8.379707835223	6
0	316	8.452541146813	7
0	317	8.479707835223	6
0	320	8.509994387487	7
0	321	8.579707835223	6
0	323	8.679707835223	5
0	326	8.742629493656	6
0	327	8.779707835223	5
0	330	8.862240273602	6
0	332	8.87269639618	7
0	334	8.878907925227	8
0	335	8.879707835223	7
0	337	8.979707835223	6
0	339	9.079707835223	5
0	341	9.179707835223	4
0	344	9.228929293672	5
0	345	9.279707835223	4
0	348	9.338820540427	5
0	349	9.379707835223	4
0	352	9.444703953576	5
0	353	9.479707835223	4
0	356	9.555763698145	5
0	358	9.574506304747	6
0	359	9.579707835223	5
0	362	9.598126975355	6
0	364	9.642467378217	7
0	366	9.65627024706	8
0	367	9.679707835223	7
0	369	9.779707835223	6
0	372	9.795174516039	7
0	374	9.833070712467	8
0	375	9.879707835223	7
0	378	9.926676868444	8
0	380	9.971887074466	9
0	381	9.979707835223	8
0	384	10.011198330196	9
0	385	10.079707835223	8
0	388	10.095641109549	9
0	390	10.09955942519	10
0	392	10.157291856271	11
0	393	10.179707835223	10
0	396	10.257878956788	11
0	397	10.279707835223	10
0	399	10.379707835223	9
0	401	10.479707835223	8
0	403	10.579707835223	7
0	405	10.679707835223	6
0	408	10.703328641406	7
0	409	10.779707835223	6
0	411	10.879707835223	5
0	413	10.979707835223	4
0	416	11.022623305611	5
0	418	11.033386816427	6
0	419	11.079707835223	5
0	422	11.139169457762	6
0	424	11.16259960964	7
0	425	11.179707835223	6
0	428	11.263401534182	7
0	429	11.279707835223	6
0	432	11.280992888725	7
0	433	11.379707835223	6
0	435	11.479707835223	5
0	437	11.579707835223	4
0	439	11.679707835223	3
0	441	11.779707835223	2
0	444	11.817002923749	3
0	445	11.879707835223	2
0	448	11.922877195258	3
0	449	11.979707835223	2
0	452	12.010068780621	3
0	454	12.039276833948	4
0	455	12.079707835223	3
0	458	12.092783301656	4
0	460	12.155577459755	5
0	461	12.179707835223	4
0	464	12.219955559915	5
0	466	12.247983260763	6
0	467	12.279707835223	5
0	470	12.34566966817	6
0	472	12.362982413785	7
0	473	12.379707835223	6
0	476	12.404232536777	7
0	478	12.415928077756	8
0	479	12.479707835223	7
0	482	12.528244907909	8
0	483	12.579707835223	7
0	486	12.635052127624	8
0	488	12.673207711961	9
0	489	12.679707835223	8
0	492	12.688078938886	9
0	493	12.779707835223	8
0	496	12.838742472213	9
0	498	12.860630531864	10
0	499	12.879707835223	9
0	501	12.979707835223	8
0	503	13.079707835223	7
0	506	13.159349521049	8
0	507	13.179707835223	7
0	510	13.205350916823	8
0	511	13.279707835223	7
0	514	13.313977854911	8
0	515	13.379707835223	7
0	517	13.479707835223	6
0	520	13.486011020683	7
0	522	13.487377478526	8
0	524	13.497591966678	9
0	525	13.579707835223	8
0	528	13.595102160094	9
0	529	13.679707835223	8
0	532	13.777084052022	9
0	533	13.779707835223	8
0	535	13.879707835223	7
0	538	13.889065488597	8
0	540	13.899168966128	9
0	541	13.979707835223	8
0	543	14.079707835223	7
0	545	14.179707835223	6
0	548	14.256527803362	7
0	549	14.279707835223	6
0	551	14.379707835223	5
0	553	14.479707835223	4
0	555	14.579707835223	3
0	558	14.63143094932	4
0	559	14.679707835223	3
0	561	14.779707835223	2
0	564	14.841963079399	3
0	565	14.879707835223	2
0	568	14.905196739039	3
0	570	14.976455098372	4
0	571	14.979707835223	3
1	2	0	0
1	5	0.1	0.020412549543
1	9	0.2	0.030556510695
1	13	0.3	0.00496343489
1	18	0.480996986317	0
1	21	0.580996986317	0.007677686853
1	26	0.768473833052	0
1	29	0.868473833052	0.021279886002
1	34	1.03509035247	0
1	37	1.13509035247	0.044895151333
1	41	1.23509035247	0.047194508694
1	45	1.33509035247	0.043378578628
1	53	1.43509035247	0.094865762256
1	55	1.53509035247	0.137313842568
1	57	1.63509035247	0.201997928654
1	63	1.73509035247	0.07964548645
1	65	1.83509035247	0.173807019541
1	70	1.992774560922	0
1	75	2.092774560922	0.068164385916
1	79	2.192774560922	0.119804175421
1	81	2.292774560922	0.154859540596
1	85	2.392774560922	0.097969928834
1	89	2.492774560922	0.030748808802
1	93	2.592774560922	0.055481397471
1	99	2.692774560922	0.090093140749
1	103	2.792774560922	0.106149855459
1	105	2.892774560922	0.156262654557
1	110	2.99633731495	0
1	114	3.177174241377	0
1	121	3.277174241377	0.092631464453
1	127	3.377174241377	0.151473664829
1	131	3.477174241377	0.242357562217
1	135	3.577174241377	0.237896311386
1	137	3.677174241377	0.335853752546
1	139	3.777174241377	0.38992893882
1	141	3.877174241377	0.311180172476
1	145	3.977174241377	0.096163179608
1	151	4.077174241377	0.045584753744
1	153	4.177174241377	0.130461668378
1	157	4.277174241377	0.026430242584
1	162	4.454833220384	0
1	166	4.839355407298	0
1	169	4.939355407298	0.035829082732
1	174	5.064050280272	0
1	178	5.225450487761	0
1	181	5.325450487761	0.038107054037
1	185	5.425450487761	0.064610611918
1	189	5.525450487761	0.012957014519
1	194	5.626087367413	0
1	197	5.726087367413	0.087412559056
1	201	5.826087367413	0.059889788834
1	205	5.926087367413	0.057746601399
1	211	6.026087367413	0.070514481895
1	215	6.126087367413	0.155041513845
1	217	6.226087367413	0.177958047998
1	222	6.337571367214	0
1	226	6.479707835223	0
1	231	6.579707835223	0.026217270824
1	235	6.679707835223	0.115022654761
1	243	6.779707835223	0.161466082738
1	245	6.879707835223	0.197296612535
1	249	6.979707835223	0.26656857732
1	255	7.079707835223	0.345948249117
1	259	7.179707835223	0.297122766542
1	269	7.279707835223	0.26359374808
1	275	7.379707835223	0.302685505762
1	281	7.479707835223	0.378280656688
1	285	7.579707835223	0.394247186127
1	289	7.679707835223	0.479719383398
1	291	7.779707835223	0.577822526478
1	293	7.879707835223	0.63864544541
1	297	7.979707835223	0.642507351503
1	299	8.079707835223	0.726293702558
1	303	8.179707835223	0.731594034841
1	307	8.279707835223	0.806449841634
1	313	8.379707835223	0.810495043897
1	317	8.479707835223	0.861639338966
1	321	8.579707835223	0.673847836838
1	323	8.679707835223	0.540956499417
1	327	8.779707835223	0.526442603947
1	335	8.879707835223	0.566667996265
1	337	8.979707835223	0.62211614676
1	339	9.079707835223	0.62716668841
1	341	9.179707835223	0.669713447736
1	345	9.279707835223	0.537078341567
1	349	9.379707835223	0.517467561621
1	353	9.479707835223	0.607011439043
1	359	9.579707835223	0.700799909996
1	367	9.679707835223	0.450778541551
1	369	9.779707835223	0.440887294796
1	375	9.879707835223	0.435003881647
1	381	9.979707835223	0.423944137078
1	385	10.079707835223	0.505201530476
1	393	10.179707835223	0.581580859868
1	397	10.279707835223	0.637240457006
1	399	10.379707835223	0.723437588163
1	401	10.479707835223	0.684533319184
1	403	10.579707835223	0.746637122756
1	405	10.679707835223	0.753030966779
1	409	10.779707835223	0.807820760757
1	411	10.879707835223	0.868509505027
1	413	10.979707835223	0.884066725674
1	419	11.079707835223	0.980148410033
1	425	11.179707835223	1.022415978952
1	429	11.279707835223	1.021828878435
1	433	11.379707835223	0.676379193817
1	435	11.479707835223	0.457084529612
1	437	11.579707835223	0.546321018796
1	439	11.679707835223	0.540538377461
1	441	11.779707835223	0.617108225583
1	445	11.879707835223	0.616306301041
1	449	11.979707835223	0.698714946498
1	455	12.079707835223	0.262704911474
1	461	12.179707835223	0.256830639965
1	467	12.279707835223	0.269639054602
1	473	12.379707835223	0.340431001275
1	479	12.479707835223	0.386924533567
1	483	12.579707835223	0.424130375468
1	489	12.679707835223	0.459752275308
1	493	12.779707835223	0.53172457446
1	499	12.879707835223	0.534038167053
1	501	12.979707835223	0.616725421438
1	503	13.079707835223	0.675475298446
1	507	13.179707835223	0.763779757467
1	511	13.279707835223	0.751462927314
1	515	13.379707835223	0.744655707599
1	517	13.479707835223	0.806500123262
1	525	13.579707835223	0.891628896337
1	529	13.679707835223	0.84096536301
1	533	13.779707835223	0.919077303359
1	535	13.879707835223	0.720358314174
1	541	13.979707835223	0.7743569184
1	543	14.079707835223	0.765729980312
1	545	14.179707835223	0.69369681454
1	549	14.279707835223	0.792330356697
1	551	14.379707835223	0.882115868545
1	553	14.479707835223	0.884605675129
1	555	14.579707835223	0.802623783201
1	559	14.679707835223	0.790642346626
1	561	14.779707835223	0.880538869095
1	565	14.879707835223	0.623180031861
1	571	14.979707835223	0.348276885903
2	6	0.1	0.1
2	10	0.2	0.120412549543
2	14	0.3	0.130556510695
2	16	0.4	0.10496343489
2	22	0.580996986317	0.1
2	24	0.680996986317	0.107677686853
2	30	0.868473833052	0.1
2	32	0.968473833052	0.121279886002
2	38	1.13509035247	0.1
2	42	1.23509035247	0.144895151333
2	46	1.33509035247	0.147194508694
2	54	1.43509035247	0.143378578628
2	56	1.53509035247	0.194865762256
2	58	1.63509035247	0.237313842568
2	64	1.73509035247	0.301997928654
2	66	1.83509035247	0.17964548645
2	68	1.93509035247	0.273807019541
2	76	2.092774560922	0.1
2	80	2.192774560922	0.168164385916
2	82	2.292774560922	0.219804175421
2	86	2.392774560922	0.254859540596
2	90	2.492774560922	0.197969928834
2	94	2.592774560922	0.130748808802
2	100	2.692774560922	0.155481397471
2	104	2.792774560922	0.190093140749
2	106	2.892774560922	0.206149855459
2	108	2.992774560922	0.256262654557
2	112	3.09633731495	0.1
2	122	3.277174241377	0.1
2	128	3.377174241377	0.192631464453
2	132	3.477174241377	0.251473664829
2	136	3.577174241377	0.342357562217
2	138	3.677174241377	0.337896311386
2	140	3.777174241377	0.435853752546
2	142	3.877174241377	0.48992893882
2	146	3.977174241377	0.411180172476
2	152	4.077174241377	0.196163179608
2	154	4.177174241377	0.145584753744
2	158	4.277174241377	0.230461668378
2	160	4.377174241377	0.126430242584
2	164	4.554833220384	0.1
2	170	4.939355407298	0.1
2	172	5.039355407298	0.135829082732
2	176	5.164050280272	0.1
2	182	5.325450487761	0.1
2	186	5.425450487761	0.138107054037
2	190	5.525450487761	0.164610611918
2	192	5.625450487761	0.112957014519
2	198	5.726087367413	0.1
2	202	5.826087367413	0.187412559056
2	206	5.926087367413	0.159889788834
2	212	6.026087367413	0.157746601399
2	216	6.126087367413	0.170514481895
2	218	6.226087367413	0.255041513845
2	220	6.326087367413	0.277958047998
2	224	6.437571367214	0.1
2	232	6.579707835223	0.1
2	236	6.679707835223	0.126217270824
2	244	6.779707835223	0.215022654761
2	246	6.879707835223	0.261466082738
2	250	6.979707835223	0.297296612535
2	256	7.079707835223	0.36656857732
2	260	7.179707835223	0.445948249117
2	270	7.279707835223	0.397122766542
2	276	7.379707835223	0.36359374808
2	282	7.479707835223	0.402685505762
2	286	7.579707835223	0.478280656688
2	290	7.679707835223	0.494247186127
2	292	7.779707835223	0.579719383398
2	294	7.879707835223	0.677822526478
2	298	7.979707835223	0.73864544541
2	300	8.079707835223	0.742507351503
2	304	8.179707835223	0.826293702558
2	308	8.279707835223	0.831594034841
2	314	8.379707835223	0.906449841634
2	318	8.479707835223	0.910495043897
2	322	8.579707835223	0.961639338966
2	324	8.679707835223	0.773847836838
2	328	8.779707835223	0.640956499417
2	336	8.879707835223	0.626442603947
2	338	8.979707835223	0.666667996265
2	340	9.079707835223	0.72211614676
2	342	9.179707835223	0.72716668841
2	346	9.279707835223	0.769713447736
2	350	9.379707835223	0.637078341567
2	354	9.479707835223	0.617467561621
2	360	9.579707835223	0.707011439043
2	368	9.679707835223	0.800799909996
2	370	9.779707835223	0.550778541551
2	376	9.879707835223	0.540887294796
2	382	9.979707835223	0.535003881647
2	386	10.079707835223	0.523944137078
2	394	10.179707835223	0.605201530476
2	398	10.279707835223	0.681580859868
2	400	10.379707835223	0.737240457006
2	402	10.479707835223	0.823437588163
2	404	10.579707835223	0.784533319184
2	406	10.679707835223	0.846637122756
2	410	10.779707835223	0.853030966779
2	412	10.879707835223	0.907820760757
2	414	10.979707835223	0.968509505027
2	420	11.079707835223	0.984066725674
2	426	11.179707835223	1.080148410033
2	430	11.279707835223	1.122415978952
2	434	11.379707835223	1.121828878435
2	436	11.479707835223	0.776379193817
2	438	11.579707835223	0.557084529612
2	440	11.679707835223	0.646321018796
2	442	11.779707835223	0.640538377461
2	446	11.879707835223	0.717108225583
2	450	11.979707835223	0.716306301041
2	456	12.079707835223	0.798714946498
2	462	12.179707835223	0.362704911474
2	468	12.279707835223	0.356830639965
2	474	12.379707835223	0.369639054602
2	480	12.479707835223	0.440431001275
2	484	12.579707835223	0.486924533567
2	490	12.679707835223	0.524130375468
2	494	12.779707835223	0.559752275308
2	500	12.879707835223	0.63172457446
2	502	12.979707835223	0.634038167053
2	504	13.079707835223	0.716725421438
2	508	13.179707835223	0.775475298446
2	512	13.279707835223	0.863779757467
2	516	13.379707835223	0.851462927314
2	518	13.479707835223	0.844655707599
2	526	13.579707835223	0.906500123262
2	530	13.679707835223	0.991628896337
2	534	13.779707835223	0.94096536301
2	536	13.879707835223	1.019077303359
2	542	13.979707835223	0.820358314174
2	544	14.079707835223	0.8743569184
2	546	14.179707835223	0.865729980312
2	550	14.279707835223	0.79369681454
2	552	14.379707835223	0.892330356697
2	554	14.479707835223	0.982115868545
2	556	14.579707835223	0.984605675129
2	560	14.679707835223	0.902623783201
2	562	14.779707835223	0.890642346626
2	566	14.879707835223	0.980538869095
2	572	14.979707835223	0.723180031861

