version 3
run Fifo1-0-20211218-16:50:49-61906
attr configname Fifo1
attr datetime 20211218-16:50:49
attr datetimef 20211218-165049
attr experiment Fifo1
attr inifile omnetpp.ini
attr iterationvars ""
attr iterationvarsd ""
attr iterationvarsf ""
attr measurement ""
attr network SingleQueue
attr processid 61906
attr repetition 0
attr replication #0
attr resultdir results
attr runnumber 0
attr seedset 0
config cmdenv-redirect-output true
config sim-time-limit 20s
config description "low job arrival rate"
config network SingleQueue
config **.source.interarrivalTime exponential(0.2s)
config **.fifo.serviceTime 0.1s
config sim-time-limit 100h
config cpu-time-limit 300s

vector 0 SingleQueue.fifo qlen:vector ETV
attr interpolationmode sample-hold
attr recordingmode vector
attr title "queue length"
vector 1 SingleQueue.fifo queueingTime:vector ETV
attr interpolationmode none
attr recordingmode vector
attr title "queueing time"
attr unit s
vector 2 SingleQueue.sink lifetime:vector ETV
attr interpolationmode none
attr recordingmode vector
attr title "lifetime of arrived jobs"
attr unit s
0	0	0	0
0	48	2.680449180432	1
0	49	2.683423547688	0
0	56	2.866184847637	1
0	57	2.895553019809	0
0	64	3.322566665863	1
0	65	3.410889732044	0
0	72	4.049220350017	1
0	73	4.085549121849	0
0	76	4.145940771007	1
0	77	4.185549121849	0
0	80	4.275830040657	1
0	81	4.285549121849	0
0	104	5.473023812737	1
0	105	5.473249410934	0
0	116	6.369085553855	1
0	118	6.451401153104	2
0	119	6.454348482762	1
0	122	6.469633358329	2
0	123	6.554348482762	1
0	125	6.654348482762	0
0	128	6.678555859991	1
0	130	6.682640977671	2
0	131	6.754348482762	1
0	134	6.774490605122	2
0	135	6.854348482762	1
0	137	6.954348482762	0
0	152	8.093425146005	1
0	153	8.163178975272	0
0	196	11.277349616721	1
0	197	11.352174734833	0
0	212	11.942091707144	1
0	213	12.011145771044	0
0	216	12.096258638837	1
0	217	12.111145771044	0
0	232	13.129370360931	1
0	233	13.206981128804	0
0	236	13.236483504977	1
0	237	13.306981128804	0
0	240	13.364822445383	1
0	241	13.406981128804	0
0	244	13.426278515814	1
0	246	13.46751917222	2
0	247	13.506981128804	1
0	249	13.606981128804	0
0	264	14.202854357079	1
0	265	14.254044658932	0
0	272	14.399976903659	1
0	274	14.403770617499	2
0	275	14.470921298201	1
0	278	14.482124779634	2
0	279	14.570921298201	1
0	281	14.670921298201	0
0	284	14.674400967447	1
0	286	14.706828265336	2
0	287	14.770921298201	1
0	289	14.870921298201	0
0	292	14.896227600771	1
0	294	14.946515987186	2
0	295	14.970921298201	1
0	297	15.070921298201	0
0	300	15.13842558266	1
0	301	15.170921298201	0
0	304	15.236136992522	1
0	305	15.270921298201	0
0	324	16.715183376935	1
0	325	16.726079677925	0
0	344	17.745392792367	1
0	346	17.75781585046	2
0	347	17.824480547212	1
0	349	17.924480547212	0
0	368	19.1490126095	1
0	370	19.196253950717	2
0	371	19.211527396296	1
0	374	19.284934756441	2
0	375	19.311527396296	1
0	378	19.312540494127	2
0	379	19.411527396296	1
0	381	19.511527396296	0
0	384	19.590349032085	1
0	385	19.611527396296	0
0	388	19.666141424942	1
0	389	19.711527396296	0
0	396	19.943774148941	1
0	397	19.953353736896	0
1	2	0	0
1	6	0.159174900913	0
1	10	0.33888697861	0
1	14	0.590073130219	0
1	18	0.961993972634	0
1	22	1.146638598928	0
1	26	1.536947666105	0
1	30	1.694387894101	0
1	34	2.070180704942	0
1	38	2.180390402276	0
1	42	2.375791687555	0
1	46	2.583423547688	0
1	49	2.683423547688	0.002974367256
1	54	2.795553019809	0
1	57	2.895553019809	0.029368172172
1	62	3.310889732044	0
1	65	3.410889732044	0.088323066181
1	70	3.985549121849	0
1	73	4.085549121849	0.036328771832
1	77	4.185549121849	0.039608350842
1	81	4.285549121849	0.009719081192
1	86	4.589609264182	0
1	90	4.924051504247	0
1	94	5.07458632691	0
1	98	5.205362840354	0
1	102	5.373249410934	0
1	105	5.473249410934	0.000225598197
1	110	5.992674629907	0
1	114	6.354348482762	0
1	119	6.454348482762	0.085262928907
1	123	6.554348482762	0.102947329658
1	125	6.654348482762	0.184715124433
1	131	6.754348482762	0.075792622771
1	135	6.854348482762	0.171707505091
1	137	6.954348482762	0.17985787764
1	142	7.13198813781	0
1	146	7.762022123545	0
1	150	8.063178975272	0
1	153	8.163178975272	0.069753829267
1	158	8.501487997593	0
1	162	8.909666440775	0
1	166	9.678710814603	0
1	170	9.807052649139	0
1	174	10.128100560551	0
1	178	10.45090097553	0
1	182	10.574686867455	0
1	186	10.721679751693	0
1	190	11.024986946491	0
1	194	11.252174734833	0
1	197	11.352174734833	0.074825118112
1	202	11.532395157166	0
1	206	11.736681532036	0
1	210	11.911145771044	0
1	213	12.011145771044	0.0690540639
1	217	12.111145771044	0.014887132207
1	222	12.675142734434	0
1	226	12.959415670453	0
1	230	13.106981128804	0
1	233	13.206981128804	0.077610767873
1	237	13.306981128804	0.070497623827
1	241	13.406981128804	0.042158683421
1	247	13.506981128804	0.08070261299
1	249	13.606981128804	0.139461956584
1	254	13.76517013737	0
1	258	14.032228174295	0
1	262	14.154044658932	0
1	265	14.254044658932	0.051190301853
1	270	14.370921298201	0
1	275	14.470921298201	0.070944394542
1	279	14.570921298201	0.167150680702
1	281	14.670921298201	0.188796518567
1	287	14.770921298201	0.096520330754
1	289	14.870921298201	0.164093032865
1	295	14.970921298201	0.07469369743
1	297	15.070921298201	0.124405311015
1	301	15.170921298201	0.032495715541
1	305	15.270921298201	0.034784305679
1	310	15.811719996778	0
1	314	16.277502671621	0
1	318	16.506530462561	0
1	322	16.626079677925	0
1	325	16.726079677925	0.01089630099
1	330	16.905082293634	0
1	334	17.019988774982	0
1	338	17.485258987321	0
1	342	17.724480547212	0
1	347	17.824480547212	0.079087754845
1	349	17.924480547212	0.166664696752
1	354	18.457858587351	0
1	358	18.677641080861	0
1	362	18.889407907159	0
1	366	19.111527396296	0
1	371	19.211527396296	0.062514786796
1	375	19.311527396296	0.115273445579
1	379	19.411527396296	0.126592639855
1	381	19.511527396296	0.198986902169
1	385	19.611527396296	0.021178364211
1	389	19.711527396296	0.045385971354
1	394	19.853353736896	0
1	397	19.953353736896	0.009579587955
2	4	0.1	0.1
2	8	0.259174900913	0.1
2	12	0.43888697861	0.1
2	16	0.690073130219	0.1
2	20	1.061993972634	0.1
2	24	1.246638598928	0.1
2	28	1.636947666105	0.1
2	32	1.794387894101	0.1
2	36	2.170180704942	0.1
2	40	2.280390402276	0.1
2	44	2.475791687555	0.1
2	50	2.683423547688	0.1
2	52	2.783423547688	0.102974367256
2	58	2.895553019809	0.1
2	60	2.995553019809	0.129368172172
2	66	3.410889732044	0.1
2	68	3.510889732044	0.188323066181
2	74	4.085549121849	0.1
2	78	4.185549121849	0.136328771832
2	82	4.285549121849	0.139608350842
2	84	4.385549121849	0.109719081192
2	88	4.689609264182	0.1
2	92	5.024051504247	0.1
2	96	5.17458632691	0.1
2	100	5.305362840354	0.1
2	106	5.473249410934	0.1
2	108	5.573249410934	0.100225598197
2	112	6.092674629907	0.1
2	120	6.454348482762	0.1
2	124	6.554348482762	0.185262928907
2	126	6.654348482762	0.202947329658
2	132	6.754348482762	0.284715124433
2	136	6.854348482762	0.175792622771
2	138	6.954348482762	0.271707505091
2	140	7.054348482762	0.27985787764
2	144	7.23198813781	0.1
2	148	7.862022123545	0.1
2	154	8.163178975272	0.1
2	156	8.263178975272	0.169753829267
2	160	8.601487997593	0.1
2	164	9.009666440775	0.1
2	168	9.778710814603	0.1
2	172	9.907052649139	0.1
2	176	10.228100560551	0.1
2	180	10.55090097553	0.1
2	184	10.674686867455	0.1
2	188	10.821679751693	0.1
2	192	11.124986946491	0.1
2	198	11.352174734833	0.1
2	200	11.452174734833	0.174825118112
2	204	11.632395157166	0.1
2	208	11.836681532036	0.1
2	214	12.011145771044	0.1
2	218	12.111145771044	0.1690540639
2	220	12.211145771044	0.114887132207
2	224	12.775142734434	0.1
2	228	13.059415670453	0.1
2	234	13.206981128804	0.1
2	238	13.306981128804	0.177610767873
2	242	13.406981128804	0.170497623827
2	248	13.506981128804	0.142158683421
2	250	13.606981128804	0.18070261299
2	252	13.706981128804	0.239461956584
2	256	13.86517013737	0.1
2	260	14.132228174295	0.1
2	266	14.254044658932	0.1
2	268	14.354044658932	0.151190301853
2	276	14.470921298201	0.1
2	280	14.570921298201	0.170944394542
2	282	14.670921298201	0.267150680702
2	288	14.770921298201	0.288796518567
2	290	14.870921298201	0.196520330754
2	296	14.970921298201	0.264093032865
2	298	15.070921298201	0.17469369743
2	302	15.170921298201	0.224405311015
2	306	15.270921298201	0.132495715541
2	308	15.370921298201	0.134784305679
2	312	15.911719996778	0.1
2	316	16.377502671621	0.1
2	320	16.606530462561	0.1
2	326	16.726079677925	0.1
2	328	16.826079677925	0.11089630099
2	332	17.005082293634	0.1
2	336	17.119988774982	0.1
2	340	17.585258987321	0.1
2	348	17.824480547212	0.1
2	350	17.924480547212	0.179087754845
2	352	18.024480547212	0.266664696752
2	356	18.557858587351	0.1
2	360	18.777641080861	0.1
2	364	18.989407907159	0.1
2	372	19.211527396296	0.1
2	376	19.311527396296	0.162514786796
2	380	19.411527396296	0.215273445579
2	382	19.511527396296	0.226592639855
2	386	19.611527396296	0.298986902169
2	390	19.711527396296	0.121178364211
2	392	19.811527396296	0.145385971354
2	398	19.953353736896	0.1

