version 3
run TandemQueueExperiment-3-20211218-16:50:49-61924
attr configname TandemQueueExperiment
attr datetime 20211218-16:50:49
attr datetimef 20211218-165049
attr experiment TandemQueueExperiment
attr inifile omnetpp.ini
attr iterationvars $serviceTimeMean=2.5s
attr iterationvarsd serviceTimeMean=2.5s
attr iterationvarsf serviceTimeMean=2.5s-
attr measurement $serviceTimeMean=2.5s
attr network TandemQueues
attr processid 61924
attr repetition 1
attr replication #1
attr resultdir results
attr runnumber 3
attr seedset 3
itervar serviceTimeMean 2.5s
config cmdenv-redirect-output true
config network TandemQueues
config **.interarrivalTime exponential(2s)
config **.serviceTime truncnormal(2.5s,1s)
config repeat 2
config sim-time-limit 200s
config sim-time-limit 100h
config cpu-time-limit 300s

vector 0 TandemQueues.fifo1 qlen:vector ETV
attr interpolationmode sample-hold
attr recordingmode vector
attr title "queue length"
vector 1 TandemQueues.fifo2 qlen:vector ETV
attr interpolationmode sample-hold
attr recordingmode vector
attr title "queue length"
vector 2 TandemQueues.fifo1 queueingTime:vector ETV
attr interpolationmode none
attr recordingmode vector
attr title "queueing time"
attr unit s
vector 3 TandemQueues.fifo2 queueingTime:vector ETV
attr interpolationmode none
attr recordingmode vector
attr title "queueing time"
attr unit s
vector 4 TandemQueues.sink lifetime:vector ETV
attr interpolationmode none
attr recordingmode vector
attr title "lifetime of arrived jobs"
attr unit s
0	0	0	0
0	4	1.600564781785	1
0	5	2.400437129511	0
0	10	5.265090839487	1
0	11	5.500120289434	0
0	20	10.303693394269	1
0	24	11.466224758378	2
0	25	12.504472781794	1
0	28	13.839955750807	2
0	31	15.154978155298	1
0	34	15.934714837134	2
0	38	17.291767694702	3
0	39	17.530911534318	2
0	44	19.079177202588	3
0	45	22.217331224075	2
0	49	24.083884728188	1
0	53	26.300715515793	0
0	56	26.35161998587	1
0	58	27.924993499014	2
0	61	28.632673401979	1
0	64	30.759863950761	2
0	68	31.261813196623	3
0	69	31.84982946501	2
0	71	34.154505251053	1
0	74	35.732883397294	2
0	78	37.964707611605	3
0	79	38.3592064686	2
0	81	39.302219161773	1
0	85	40.934782108051	0
0	88	41.274930085253	1
0	92	42.907100483137	2
0	94	42.953878424121	3
0	96	43.463803580505	4
0	99	43.771405935294	3
0	102	44.222717858737	4
0	104	44.850046143431	5
0	107	46.25838121181	4
0	110	46.731334225801	5
0	113	48.128720163683	4
0	117	50.205962857062	3
0	120	50.671201830094	4
0	122	50.827557638115	5
0	126	51.287416535419	6
0	128	51.419204324307	7
0	129	51.77695109001	6
0	132	52.862441893928	7
0	136	55.221872366624	8
0	139	55.913904497177	7
0	142	56.121258836104	8
0	144	57.343774610072	9
0	145	58.16465934058	8
0	150	59.693204142357	9
0	151	59.986798141875	8
0	155	61.004880290157	7
0	160	63.406274999002	8
0	163	64.105203252027	7
0	166	64.584372107436	8
0	169	67.118971398612	7
0	172	67.874737274872	8
0	173	68.490285505723	7
0	176	70.226658347124	8
0	178	70.27940023411	9
0	179	70.318452376547	8
0	185	71.646068474285	7
0	188	72.853668070146	8
0	190	73.503254018429	9
0	192	73.946982821025	10
0	196	74.334303089987	11
0	198	74.545256010473	12
0	199	76.193528318521	11
0	202	76.904796252809	12
0	206	78.516432653867	13
0	208	78.696283634312	14
0	209	78.700603690804	13
0	213	80.583962193069	12
0	217	82.832111315251	11
0	222	84.77361516979	12
0	223	86.274201850357	11
0	226	86.467539812643	12
0	230	87.776315855385	13
0	232	88.637651614266	14
0	233	89.955387665768	13
0	238	91.368693461984	14
0	239	91.535979341005	13
0	241	93.740684890957	12
0	244	94.449733335649	13
0	248	96.059431405769	14
0	249	96.944330081754	13
0	253	99.511135687712	12
0	256	99.580210201387	13
0	259	103.70458734802	12
0	263	105.582810283621	11
0	266	106.738349877582	12
0	267	106.903985964134	11
0	270	107.116710887543	12
0	273	108.717107446196	11
0	275	109.21118149575	10
0	280	110.215450251654	11
0	282	111.053826693712	12
0	284	111.206776128236	13
0	285	111.947530993413	12
0	290	113.088177185254	13
0	292	113.397587586049	14
0	293	115.981148845882	13
0	297	118.364784544652	12
0	301	120.750577497607	11
0	305	124.412400784748	10
0	309	127.398451906125	9
0	311	128.354974012948	8
0	315	129.832083616403	7
0	319	132.568697156902	6
0	324	134.628312896852	7
0	325	135.568631234372	6
0	330	138.262005080431	7
0	332	138.605171334718	8
0	335	139.78713083743	7
0	338	140.960336287032	8
0	339	141.441323173071	7
0	342	141.79138513006	8
0	345	143.821245505412	7
0	350	145.783346539145	8
0	352	145.953527986297	9
0	353	146.21803034205	8
0	358	148.328175257457	9
0	359	149.1839789828	8
0	365	152.464547043417	7
0	368	153.376145977538	8
0	371	154.45253501458	7
0	374	154.46416209174	8
0	376	155.83716056445	9
0	379	158.043642499985	8
0	384	160.079768535079	9
0	387	162.02703194038	8
0	391	164.840973312562	7
0	397	169.379733861145	6
0	401	171.939449572622	5
0	406	172.32966887242	6
0	408	172.816232487665	7
0	410	173.718443245335	8
0	413	176.441776734542	7
0	416	177.283183696473	8
0	417	178.311675508568	7
0	422	179.128256744289	8
0	426	180.678909254855	9
0	427	180.905738763175	8
0	430	183.728955537039	9
0	433	183.922825035083	8
0	436	185.259251268037	9
0	438	185.482588014971	10
0	441	186.545805350561	9
0	443	187.962227735065	8
0	450	192.204236067228	9
0	452	192.503967677654	10
0	454	192.597097307222	11
0	456	192.641784474076	12
0	458	192.756283407276	13
0	459	192.966407090348	12
0	462	193.259308553445	13
0	466	193.986093258454	14
0	467	194.442225521858	13
0	472	195.179590965544	14
0	473	196.365390862	13
0	480	198.711787009583	14
0	481	199.562722553803	13
1	0	0	0
1	72	34.154505251053	1
1	75	36.677456985398	0
1	80	38.3592064686	1
1	82	39.302219161773	2
1	83	39.904328107794	1
1	86	40.934782108051	2
1	89	42.027514557117	1
1	97	43.507629351082	0
1	100	43.771405935294	1
1	105	45.064532642159	0
1	108	46.25838121181	1
1	111	47.80452102625	0
1	114	48.128720163683	1
1	115	49.041498580979	0
1	118	50.205962857062	1
1	123	51.222153251089	0
1	130	51.77695109001	1
1	133	54.230712352023	0
1	146	58.16465934058	1
1	147	58.38927357574	0
1	152	59.986798141875	1
1	153	60.278106429075	0
1	156	61.004880290157	1
1	157	61.895551546908	0
1	174	68.490285505723	1
1	180	70.318452376547	2
1	181	70.336591253406	1
1	183	70.999907763653	0
1	186	71.646068474285	1
1	193	74.121516056662	0
1	200	76.193528318521	1
1	203	77.194403161719	0
1	210	78.700603690804	1
1	211	79.883717872258	0
1	214	80.583962193069	1
1	215	81.519008771447	0
1	218	82.832111315251	1
1	219	83.91251142854	0
1	224	86.274201850357	1
1	227	87.396528189206	0
1	234	89.955387665768	1
1	235	90.878721502466	0
1	240	91.535979341005	1
1	242	93.740684890957	2
1	245	95.20496272464	1
1	250	96.944330081754	2
1	251	98.120027284986	1
1	254	99.511135687712	2
1	257	101.089303026885	1
1	260	103.70458734802	2
1	261	104.599729478872	1
1	264	105.582810283621	2
1	268	106.903985964134	3
1	271	108.05106479409	2
1	274	108.717107446196	3
1	276	109.21118149575	4
1	277	109.763232113215	3
1	286	111.947530993413	4
1	287	112.838675025382	3
1	294	115.981148845882	4
1	295	116.72592539929	3
1	298	118.364784544652	4
1	299	119.211560979832	3
1	302	120.750577497607	4
1	303	121.693836539756	3
1	306	124.412400784748	4
1	307	124.776629471064	3
1	310	127.398451906125	4
1	312	128.354974012948	5
1	313	128.729439564354	4
1	316	129.832083616403	5
1	317	130.848595590731	4
1	320	132.568697156902	5
1	321	133.613839675604	4
1	326	135.568631234372	5
1	327	136.675538549699	4
1	333	138.975463827869	3
1	336	139.78713083743	4
1	340	141.441323173071	5
1	343	142.369190832775	4
1	346	143.821245505412	5
1	347	144.447229922063	4
1	354	146.21803034205	5
1	355	148.006960881741	4
1	360	149.1839789828	5
1	361	150.323388176511	4
1	363	151.486132162888	3
1	366	152.464547043417	4
1	369	153.453966649881	3
1	372	154.45253501458	4
1	377	156.571477588287	3
1	380	158.043642499985	4
1	381	159.543824301867	3
1	385	161.101934124295	2
1	388	162.02703194038	3
1	389	163.966092515602	2
1	392	164.840973312562	3
1	393	165.85848126022	2
1	395	168.008156148824	1
1	398	169.379733861145	2
1	399	170.24795617212	1
1	402	171.939449572622	2
1	403	172.136275876233	1
1	411	175.032319826609	0
1	414	176.441776734542	1
1	418	178.311675508568	2
1	419	178.571443278407	1
1	423	180.075788226517	0
1	428	180.905738763175	1
1	431	183.76012346238	0
1	434	183.922825035083	1
1	439	186.413127477041	0
1	442	186.545805350561	1
1	444	187.962227735065	2
1	445	188.920067660306	1
1	447	190.931779581583	0
1	460	192.966407090348	1
1	463	193.985349179748	0
1	468	194.442225521858	1
1	469	194.747635662659	0
1	474	196.365390862	1
1	475	196.44670662661	0
2	2	0	0
2	5	2.400437129511	0.799872347726
2	11	5.500120289434	0.235029449947
2	18	9.733952532006	0
2	25	12.504472781794	2.200779387525
2	31	15.154978155298	3.68875339692
2	39	17.530911534318	3.690955783511
2	45	22.217331224075	6.282616386941
2	49	24.083884728188	6.792117033486
2	53	26.300715515793	7.221538313205
2	61	28.632673401979	2.281053416109
2	69	31.84982946501	3.924835965996
2	71	34.154505251053	3.394641300292
2	79	38.3592064686	7.097393271977
2	81	39.302219161773	3.569335764479
2	85	40.934782108051	2.970074496446
2	99	43.771405935294	2.496475850041
2	107	46.25838121181	3.351280728673
2	113	48.128720163683	5.174841739562
2	117	50.205962857062	6.742159276557
2	129	51.77695109001	7.554233231273
2	139	55.913904497177	11.063858353746
2	145	58.16465934058	11.433325114779
2	151	59.986798141875	9.315596311781
2	155	61.004880290157	10.177322652042
2	163	64.105203252027	12.817786716608
2	169	67.118971398612	15.699767074305
2	173	68.490285505723	15.627843611795
2	179	70.318452376547	15.096580009923
2	185	71.646068474285	15.524809638181
2	199	76.193528318521	18.849753708449
2	209	78.700603690804	19.007399548447
2	213	80.583962193069	17.177687194067
2	217	82.832111315251	18.247739207815
2	223	86.274201850357	18.399464575485
2	233	89.955387665768	19.728729318644
2	239	91.535979341005	21.256579106895
2	241	93.740684890957	20.887016820811
2	249	96.944330081754	23.441076063325
2	253	99.511135687712	25.564152866687
2	259	103.70458734802	29.370284258033
2	263	105.582810283621	31.037554273148
2	267	106.903985964134	29.999189711325
2	273	108.717107446196	30.200674792329
2	275	109.21118149575	30.514897861438
2	285	111.947530993413	27.173915823623
2	293	115.981148845882	29.513609033239
2	297	118.364784544652	30.588468689267
2	301	120.750577497607	32.112925883341
2	305	124.412400784748	33.043707322764
2	309	127.398451906125	32.948718570476
2	311	128.354974012948	32.295542607179
2	315	129.832083616403	30.251873415016
2	319	132.568697156902	25.83034727932
2	325	135.568631234372	28.451920346829
2	335	139.78713083743	29.571680585776
2	339	141.441323173071	30.387496479359
2	345	143.821245505412	32.614469377176
2	353	146.21803034205	33.129853156796
2	359	149.1839789828	35.786391396751
2	365	152.464547043417	17.836234146565
2	371	154.45253501458	16.190529934149
2	379	158.043642499985	19.438471165267
2	387	162.02703194038	21.066695653348
2	391	164.840973312562	23.049588182502
2	397	169.379733861145	23.596387322
2	401	171.939449572622	25.985921586325
2	413	176.441776734542	28.113601477085
2	417	178.311675508568	24.93552953103
2	427	180.905738763175	26.441576671435
2	433	183.922825035083	28.085664470633
2	441	186.545805350561	26.466036815482
2	443	187.962227735065	15.632558862645
2	459	192.966407090348	20.150174602683
2	467	194.442225521858	20.723782276523
2	473	196.365390862	19.082207165527
2	481	199.562722553803	20.434465809514
3	6	2.400437129511	0
3	12	5.500120289434	0
3	16	8.852471999177	0
3	26	12.504472781794	0
3	32	15.154978155298	0
3	40	17.530911534318	0
3	46	22.217331224075	0
3	50	24.083884728188	0
3	54	26.300715515793	0
3	62	28.632673401979	0
3	70	31.84982946501	0
3	75	36.677456985398	2.522951734345
3	83	39.904328107794	1.545121639194
3	89	42.027514557117	2.725295395344
3	97	43.507629351082	2.572847243031
3	105	45.064532642159	1.293126706865
3	111	47.80452102625	1.54613981444
3	115	49.041498580979	0.912778417296
3	123	51.222153251089	1.016190394027
3	133	54.230712352023	2.453761262013
3	140	55.913904497177	0
3	147	58.38927357574	0.22461423516
3	153	60.278106429075	0.2913082872
3	157	61.895551546908	0.890671256751
3	164	64.105203252027	0
3	170	67.118971398612	0
3	181	70.336591253406	1.846305747683
3	183	70.999907763653	0.681455387106
3	193	74.121516056662	2.475447582377
3	203	77.194403161719	1.000874843198
3	211	79.883717872258	1.183114181454
3	215	81.519008771447	0.935046578378
3	219	83.91251142854	1.080400113289
3	227	87.396528189206	1.122326338849
3	235	90.878721502466	0.923333836698
3	245	95.20496272464	3.668983383635
3	251	98.120027284986	4.379342394029
3	257	101.089303026885	4.144972945131
3	261	104.599729478872	5.08859379116
3	271	108.05106479409	4.34647744607
3	277	109.763232113215	4.180421829594
3	287	112.838675025382	5.934689061248
3	295	116.72592539929	8.008817953094
3	299	119.211560979832	10.000379484082
3	303	121.693836539756	9.746305546343
3	307	124.776629471064	8.795480625182
3	313	128.729439564354	10.364655019702
3	317	130.848595590731	10.098018093124
3	321	133.613839675604	9.201438890856
3	327	136.675538549699	9.277086643574
3	333	138.975463827869	10.620489814921
3	343	142.369190832775	12.537107216372
3	347	144.447229922063	11.878532765161
3	355	148.006960881741	12.438329647369
3	361	150.323388176511	10.536257339081
3	363	151.486132162888	10.044808989817
3	369	153.453966649881	9.632721144469
3	377	156.571477588287	10.353447246237
3	381	159.543824301867	10.359845319067
3	385	161.101934124295	8.637387080878
3	389	163.966092515602	9.513557501022
3	393	165.85848126022	7.814838760235
3	395	168.008156148824	5.981124208444
3	399	170.24795617212	5.406982859558
3	403	172.136275876233	2.756542015088
3	411	175.032319826609	3.092870253987
3	419	178.571443278407	2.129666543865
3	423	180.075788226517	1.764112717949
3	431	183.76012346238	2.854384699205
3	439	186.413127477041	2.490302441958
3	445	188.920067660306	2.374262309745
3	447	190.931779581583	2.969551846518
3	463	193.985349179748	1.0189420894
3	469	194.747635662659	0.305410140801
3	475	196.44670662661	0.08131576461
3	482	199.562722553803	0
4	8	3.816197769908	3.816197769908
4	14	8.137185154254	6.536620372469
4	22	11.428922785476	6.163831945989
4	30	13.947108822169	4.213156290163
4	36	17.237224095465	6.933530701196
4	42	18.442160292375	6.975935533997
4	48	23.738064287457	9.89810853665
4	52	25.26886037011	9.334145532976
4	60	28.240137300998	10.948369606296
4	66	31.091923281238	12.01274607865
4	76	36.677456985398	10.325836999528
4	84	39.904328107794	11.97933460878
4	90	42.027514557117	11.267650606356
4	98	43.507629351082	12.245816154459
4	106	45.064532642159	9.331649244865
4	112	47.80452102625	9.839813414645
4	116	49.041498580979	7.766568495726
4	124	51.222153251089	8.315052767952
4	134	54.230712352023	11.276833927902
4	138	55.646844449733	12.183040869228
4	148	58.38927357574	14.166555717003
4	154	60.278106429075	15.428060285644
4	158	61.895551546908	15.164217321107
4	162	63.515757046724	12.84455521663
4	168	66.644235494797	15.816677856682
4	182	70.336591253406	19.049174717987
4	184	70.999907763653	19.580703439346
4	194	74.121516056662	21.259074162734
4	204	77.194403161719	21.972530795095
4	212	79.883717872258	23.762459036154
4	216	81.519008771447	24.175234161375
4	220	83.91251142854	24.219307286183
4	228	87.396528189206	23.990253190204
4	236	90.878721502466	26.29434939503
4	246	95.20496272464	27.330225449768
4	252	98.120027284986	27.893368937862
4	258	101.089303026885	30.809902792775
4	262	104.599729478872	31.746061408726
4	272	108.05106479409	34.547810775661
4	278	109.763232113215	35.81624929219
4	288	112.838675025382	38.504371935395
4	296	116.72592539929	42.180669388817
4	300	119.211560979832	42.306764727023
4	304	121.693836539756	43.177403885889
4	308	124.776629471064	46.080345836752
4	314	128.729439564354	43.955824394564
4	318	130.848595590731	44.381055778088
4	322	133.613839675604	45.837523820219
4	328	136.675538549699	48.037886935433
4	334	138.975463827869	47.606770365885
4	344	142.369190832775	47.919457497126
4	348	144.447229922063	48.387798516294
4	356	148.006960881741	48.426750680354
4	362	150.323388176511	43.585038298929
4	364	151.486132162888	44.369421275345
4	370	153.453966649881	43.238516398227
4	378	156.571477588287	45.517650894575
4	382	159.543824301867	48.337048173631
4	386	161.101934124295	48.013756939041
4	390	163.966092515602	50.568504929553
4	394	165.85848126022	31.230168363368
4	396	168.008156148824	29.746151068393
4	400	170.24795617212	31.642784837402
4	404	172.136275876233	31.175939589201
4	412	175.032319826609	33.240934696549
4	420	178.571443278407	32.788096739262
4	424	180.075788226517	34.12226024022
4	432	183.76012346238	35.431948204923
4	440	186.413127477041	33.036981499503
4	446	188.920067660306	34.455905568566
4	448	190.931779581583	35.094619017133
4	464	193.985349179748	33.905580644669
4	470	194.747635662659	22.417966790239
4	476	196.44670662661	23.630474138945
4	478	197.160454299011	23.442011053676

