version 3
run TandemQueueExperiment-1-20211218-16:50:49-61922
attr configname TandemQueueExperiment
attr datetime 20211218-16:50:49
attr datetimef 20211218-165049
attr experiment TandemQueueExperiment
attr inifile omnetpp.ini
attr iterationvars $serviceTimeMean=1.5s
attr iterationvarsd serviceTimeMean=1.5s
attr iterationvarsf serviceTimeMean=1.5s-
attr measurement $serviceTimeMean=1.5s
attr network TandemQueues
attr processid 61922
attr repetition 1
attr replication #1
attr resultdir results
attr runnumber 1
attr seedset 1
itervar serviceTimeMean 1.5s
config cmdenv-redirect-output true
config network TandemQueues
config **.interarrivalTime exponential(2s)
config **.serviceTime truncnormal(1.5s,1s)
config repeat 2
config sim-time-limit 200s
config sim-time-limit 100h
config cpu-time-limit 300s

vector 0 TandemQueues.fifo1 qlen:vector ETV
attr interpolationmode sample-hold
attr recordingmode vector
attr title "queue length"
vector 1 TandemQueues.fifo2 qlen:vector ETV
attr interpolationmode sample-hold
attr recordingmode vector
attr title "queue length"
vector 2 TandemQueues.fifo1 queueingTime:vector ETV
attr interpolationmode none
attr recordingmode vector
attr title "queueing time"
attr unit s
vector 3 TandemQueues.fifo2 queueingTime:vector ETV
attr interpolationmode none
attr recordingmode vector
attr title "queueing time"
attr unit s
vector 4 TandemQueues.sink lifetime:vector ETV
attr interpolationmode none
attr recordingmode vector
attr title "lifetime of arrived jobs"
attr unit s
0	0	0	0
0	8	1.35342881421	1
0	10	1.670848008663	2
0	12	2.209455924016	3
0	14	2.403223669021	4
0	16	3.41350969037	5
0	17	3.42773939402	4
0	20	3.825738958298	5
0	21	4.367923667763	4
0	26	6.041525649989	5
0	27	6.792016007742	4
0	32	7.128204407241	5
0	33	7.948798060549	4
0	36	8.300211336263	5
0	38	8.355750591497	6
0	41	9.711348070135	5
0	44	9.884667096399	6
0	45	10.209376475294	5
0	50	11.520681719159	6
0	51	12.38398408915	5
0	53	13.502851624233	4
0	58	14.534347217145	5
0	59	15.857760939455	4
0	64	16.891754222233	5
0	65	18.219661484771	4
0	69	19.921854590802	3
0	72	20.425656659417	4
0	75	21.990194584899	3
0	77	22.310624381998	2
0	84	24.635462628678	3
0	87	25.251127391332	2
0	90	25.319400261624	3
0	93	27.067626871928	2
0	95	28.567865979473	1
0	98	28.918487719621	2
0	104	31.079850099646	3
0	107	31.463188135181	2
0	109	32.59355260397	1
0	114	34.194293842903	2
0	117	35.038535109262	1
0	119	36.017113658595	0
0	128	39.343600163135	1
0	132	40.053895558611	2
0	133	40.153782672809	1
0	138	40.16357374606	2
0	139	40.499453659283	1
0	141	41.907496738164	0
0	156	46.537691194963	1
0	159	47.77814128443	0
0	162	49.682009932567	1
0	163	50.264680139364	0
0	178	55.666192577795	1
0	184	56.562711368689	2
0	187	58.110064444009	1
0	192	59.151951023684	2
0	193	59.996204698046	1
0	195	60.483063077228	0
0	198	61.238775849622	1
0	199	61.490873349711	0
0	214	68.855788274146	1
0	215	69.511583434893	0
0	218	70.051142785399	1
0	219	70.185957053904	0
0	238	74.868153728425	1
0	240	75.752214082259	2
0	241	75.819710849797	1
0	246	77.024390222545	2
0	248	77.056285687782	3
0	249	77.519964516037	2
0	254	77.682972198172	3
0	255	80.150703652789	2
0	257	81.829417982109	1
0	263	84.831713395258	0
0	274	89.996801740605	1
0	276	92.483093758704	2
0	277	93.185805629863	1
0	280	93.946295536257	2
0	282	93.999416772557	3
0	284	94.226572495913	4
0	286	94.284002180435	5
0	289	94.927501469641	4
0	292	95.709927731339	5
0	295	97.029781337057	4
0	298	97.257909435643	5
0	299	97.843253252148	4
0	302	97.910253131509	5
0	304	98.564994996203	6
0	306	98.757040031865	7
0	307	99.396149587117	6
0	314	100.519656023206	7
0	315	102.171839232601	6
0	319	103.227843668386	5
0	321	103.351658990433	4
0	324	103.872895568917	5
0	325	103.963558273672	4
0	331	105.433364398845	3
0	335	107.814889711201	2
0	338	107.856370217784	3
0	345	111.576031267556	2
0	350	112.820029949774	3
0	352	112.84530089864	4
0	354	113.123295477678	5
0	356	113.27268714645	6
0	358	113.969985822709	7
0	359	114.615806374123	6
0	361	115.254994710332	5
0	365	116.749265999796	4
0	369	118.448890493865	3
0	371	120.131986948381	2
0	376	120.809299020171	3
0	380	121.266511218404	4
0	381	121.736760201479	3
0	385	124.405413512475	2
0	388	124.798471252689	3
0	390	124.879455979429	4
0	392	126.211863284341	5
0	395	127.218436333528	4
0	397	127.472148460475	3
0	399	128.115729983696	2
0	404	129.574551493731	3
0	406	130.531078553337	4
0	409	131.928919607057	3
0	412	131.952840505688	4
0	418	134.165522018278	5
0	419	134.860137450033	4
0	423	136.583204742407	3
0	426	137.055417578734	4
0	427	138.650339607379	3
0	432	139.850173157582	4
0	434	140.050494190551	5
0	437	140.694050770161	4
0	439	140.713978363878	3
0	441	140.918666633026	2
0	446	143.317489936999	3
0	450	144.102145995354	4
0	451	144.122383865099	3
0	455	145.791324964724	2
0	458	146.758694817513	3
0	461	147.838572122382	2
0	466	149.082171545698	3
0	467	149.240408472483	2
0	471	151.698303461734	1
0	475	153.118464393277	0
0	492	158.720936169833	1
0	494	158.884484515295	2
0	496	159.174719086136	3
0	497	160.494874011606	2
0	502	161.5377410154	3
0	505	163.178132742379	2
0	509	165.576055218117	1
0	511	166.843348100571	0
0	516	167.449618726078	1
0	518	168.978378142782	2
0	519	169.147504966533	1
0	524	169.823814283529	2
0	527	171.403698404021	1
0	532	174.355939714786	2
0	533	174.81209317192	1
0	537	175.296483565043	0
0	540	175.587868573577	1
0	542	175.858422766371	2
0	543	176.504521265167	1
0	548	177.206106325164	2
0	550	177.778007336473	3
0	555	178.867930029937	2
0	559	180.94066104975	1
0	562	181.071877018473	2
0	564	181.170544912809	3
0	566	181.281378533234	4
0	568	181.313379142555	5
0	572	182.403501468981	6
0	574	182.505479760957	7
0	575	182.59447751215	6
0	578	184.778537011582	7
0	579	184.975067160538	6
0	585	187.092951565643	5
0	588	188.821145764464	6
0	591	190.939144120201	5
0	595	191.827632794835	4
0	600	192.351526626432	5
0	601	193.122721345482	4
0	604	194.742937412419	5
0	605	196.107700355141	4
0	609	197.041803260837	3
0	612	197.556602541994	4
0	614	198.17020539586	5
0	615	198.499167998337	4
0	617	198.929770344974	3
0	621	199.732808944778	2
1	0	0	0
1	18	3.42773939402	1
1	22	4.367923667763	2
1	23	4.68695176766	1
1	28	6.792016007742	2
1	29	6.894722052155	1
1	34	7.948798060549	2
1	39	8.738956840627	1
1	42	9.711348070135	2
1	46	10.209376475294	3
1	47	11.516506062325	2
1	52	12.38398408915	3
1	54	13.502851624233	4
1	55	13.774429729688	3
1	60	15.857760939455	4
1	61	15.998360632389	3
1	66	18.219661484771	4
1	67	19.076673258339	3
1	70	19.921854590802	4
1	73	20.535935775096	3
1	76	21.990194584899	4
1	78	22.310624381998	5
1	79	23.25052003281	4
1	81	23.742595741698	3
1	85	25.00565363112	2
1	88	25.251127391332	3
1	91	27.051694494802	2
1	94	27.067626871928	3
1	96	28.567865979473	4
1	99	29.576342933191	3
1	101	30.578109571793	2
1	105	31.312813590079	1
1	108	31.463188135181	2
1	110	32.59355260397	3
1	111	33.377671749086	2
1	115	34.755973611897	1
1	118	35.038535109262	2
1	120	36.017113658595	3
1	121	36.858334597143	2
1	124	37.688209292047	3
1	129	39.664515062874	2
1	134	40.153782672809	3
1	135	40.161096311942	2
1	140	40.499453659283	3
1	142	41.907496738164	4
1	143	42.494821958441	3
1	145	43.540379098247	2
1	148	43.592095385671	3
1	149	46.02360406258	2
1	153	46.522913487978	1
1	157	47.476163609857	0
1	160	47.77814128443	1
1	164	50.264680139364	2
1	165	51.339561571406	1
1	168	52.575077535573	2
1	169	53.538236595633	1
1	174	54.878669520632	2
1	179	55.782859426365	1
1	181	56.448856533399	0
1	196	60.483063077228	1
1	200	61.490873349711	2
1	201	61.573140499665	1
1	203	62.993858741117	0
1	220	70.185957053904	1
1	221	71.091170249922	0
1	224	71.97839964604	1
1	225	72.177053009794	0
1	258	81.829417982109	1
1	259	82.38718343205	0
1	300	97.843253252148	1
1	308	99.396149587117	2
1	309	99.961655193463	1
1	311	100.496866370384	0
1	316	102.171839232601	1
1	317	102.948024570207	0
1	320	103.227843668386	1
1	322	103.351658990433	2
1	326	103.963558273672	3
1	327	104.299842047857	2
1	329	104.808449402057	1
1	332	105.433364398845	2
1	333	107.000586227115	1
1	336	107.814889711201	2
1	339	108.917839267276	1
1	341	110.512961244792	0
1	362	115.254994710332	1
1	363	116.347620080221	0
1	366	116.749265999796	1
1	367	117.825338167796	0
1	370	118.448890493865	1
1	372	120.131986948381	2
1	373	120.271458905286	1
1	377	120.92973692927	0
1	382	121.736760201479	1
1	383	123.811627875034	0
1	386	124.405413512475	1
1	393	126.987986982465	0
1	396	127.218436333528	1
1	398	127.472148460475	2
1	400	128.115729983696	3
1	401	128.595745297012	2
1	407	130.896012649663	1
1	410	131.928919607057	2
1	413	132.66700290451	1
1	415	134.062753510339	0
1	420	134.860137450033	1
1	421	136.049827356512	0
1	424	136.583204742407	1
1	428	138.650339607379	2
1	429	138.808760163052	1
1	435	140.247950348662	0
1	438	140.694050770161	1
1	440	140.713978363878	2
1	442	140.918666633026	3
1	443	141.941461063363	2
1	447	143.324854179598	1
1	452	144.122383865099	2
1	453	144.773977850275	1
1	456	145.791324964724	2
1	459	147.641416954417	1
1	462	147.838572122382	2
1	463	148.991201868363	1
1	468	149.240408472483	2
1	469	150.546320057014	1
1	472	151.698303461734	2
1	473	152.628278821045	1
1	476	153.118464393277	2
1	477	153.296210538933	1
1	480	154.139276158538	2
1	481	154.585935925087	1
1	486	155.759197448338	2
1	487	157.066859378124	1
1	498	160.494874011606	2
1	499	161.07607346814	1
1	503	162.37416276543	0
1	506	163.178132742379	1
1	507	165.062138484616	0
1	510	165.576055218117	1
1	512	166.843348100571	2
1	513	167.067710862497	1
1	520	169.147504966533	2
1	521	169.328206733548	1
1	525	170.013929437962	0
1	528	171.403698404021	1
1	529	171.623744550878	0
1	534	174.81209317192	1
1	535	175.245228550012	0
1	538	175.296483565043	1
1	544	176.504521265167	2
1	545	177.022453115942	1
1	551	177.880528321262	0
1	580	184.975067160538	1
1	581	185.406080044756	0
1	606	196.107700355141	1
1	607	196.547983122655	0
1	610	197.041803260837	1
1	616	198.499167998337	2
1	618	198.929770344974	3
1	619	199.463489374928	2
1	622	199.732808944778	3
2	2	0	0
2	6	1.079211653024	0
2	17	3.42773939402	2.07431057981
2	21	4.367923667763	2.6970756591
2	27	6.792016007742	4.582560083726
2	33	7.948798060549	5.545574391528
2	41	9.711348070135	6.297838379765
2	45	10.209376475294	6.383637516996
2	51	12.38398408915	6.342458439161
2	53	13.502851624233	6.374647216992
2	59	15.857760939455	7.557549603192
2	65	18.219661484771	9.863910893274
2	69	19.921854590802	10.037187494403
2	75	21.990194584899	10.46951286574
2	77	22.310624381998	7.776277164853
2	87	25.251127391332	8.359373169099
2	93	27.067626871928	6.641970212511
2	95	28.567865979473	3.932403350795
2	107	31.463188135181	6.143787873557
2	109	32.59355260397	3.675064884349
2	117	35.038535109262	3.958685009616
2	119	36.017113658595	1.822819815692
2	126	38.868029442738	0
2	133	40.153782672809	0.810182509674
2	139	40.499453659283	0.445558100672
2	141	41.907496738164	1.743922992104
2	152	46.435202585197	0
2	159	47.77814128443	1.240450089467
2	163	50.264680139364	0.582670206797
2	172	54.356402612803	0
2	176	55.304696920958	0
2	187	58.110064444009	2.443871866214
2	193	59.996204698046	3.433493329357
2	195	60.483063077228	1.331112053544
2	199	61.490873349711	0.252097500089
2	210	65.763317639705	0
2	215	69.511583434893	0.655795160747
2	219	70.185957053904	0.134814268505
2	228	72.929858636252	0
2	236	74.850056102865	0
2	241	75.819710849797	0.951557121372
2	249	77.519964516037	1.767750433778
2	255	80.150703652789	3.126313430244
2	257	81.829417982109	4.773132294327
2	263	84.831713395258	7.148741197086
2	272	89.528978329236	0
2	277	93.185805629863	3.189003889258
2	289	94.927501469641	2.444407710937
2	295	97.029781337057	3.0834858008
2	299	97.843253252148	3.843836479591
2	307	99.396149587117	5.169577091204
2	315	102.171839232601	7.887837052166
2	319	103.227843668386	7.517915937047
2	321	103.351658990433	6.09374955479
2	325	103.963558273672	6.053305142163
2	331	105.433364398845	6.868369402642
2	335	107.814889711201	9.057849679336
2	345	111.576031267556	11.05637524435
2	359	114.615806374123	10.742910805206
2	361	115.254994710332	7.398624492548
2	365	116.749265999796	3.929236050022
2	369	118.448890493865	5.603589595225
2	371	120.131986948381	7.008691470703
2	381	121.736760201479	8.464073055029
2	385	124.405413512475	10.435427689766
2	395	127.218436333528	6.409137313357
2	397	127.472148460475	6.205637242071
2	399	128.115729983696	3.317258731007
2	409	131.928919607057	7.049463627628
2	419	134.860137450033	8.648274165692
2	423	136.583204742407	7.008653248676
2	427	138.650339607379	8.119261054042
2	437	140.694050770161	8.741210264473
2	439	140.713978363878	6.5484563456
2	441	140.918666633026	3.863249054292
2	451	144.122383865099	4.272210707517
2	455	145.791324964724	5.740830774173
2	461	147.838572122382	4.521082185383
2	467	149.240408472483	5.138262477129
2	471	151.698303461734	4.939608644221
2	475	153.118464393277	4.036292847579
2	484	155.034670988401	0
2	490	158.33872250308	0
2	497	160.494874011606	1.773937841773
2	505	163.178132742379	4.293648227084
2	509	165.576055218117	6.401336131981
2	511	166.843348100571	5.305607085171
2	519	169.147504966533	1.697886240455
2	527	171.403698404021	2.425320261239
2	533	174.81209317192	4.988278888391
2	537	175.296483565043	0.940543850257
2	543	176.504521265167	0.91665269159
2	555	178.867930029937	3.009507263566
2	559	180.94066104975	3.734554724586
2	575	182.59447751215	4.816470175677
2	579	184.975067160538	3.903190142065
2	585	187.092951565643	5.922406652834
2	591	190.939144120201	9.657765586967
2	595	191.827632794835	10.51425365228
2	601	193.122721345482	10.719219876501
2	605	196.107700355141	13.602220594184
2	609	197.041803260837	12.263266249255
2	615	198.499167998337	9.678022233873
2	617	198.929770344974	6.578243718542
2	621	199.732808944778	4.989871532359
3	4	0.86467855151	0
3	23	4.68695176766	1.25921237364
3	29	6.894722052155	2.526798384392
3	39	8.738956840627	1.946940832885
3	47	11.516506062325	3.567708001776
3	55	13.774429729688	4.063081659553
3	61	15.998360632389	5.788984157095
3	67	19.076673258339	6.692689169189
3	73	20.535935775096	7.033084150863
3	79	23.25052003281	7.392759093355
3	81	23.742595741698	5.522934256927
3	85	25.00565363112	5.083799040318
3	91	27.051694494802	5.061499909903
3	99	29.576342933191	7.265718551193
3	101	30.578109571793	5.326982180461
3	105	31.312813590079	4.245186718151
3	111	33.377671749086	4.809805769613
3	115	34.755973611897	3.292785476716
3	121	36.858334597143	4.264781993173
3	129	39.664515062874	4.625979953612
3	135	40.161096311942	4.143982653347
3	143	42.494821958441	4.806612666394
3	145	43.540379098247	3.386596425438
3	149	46.02360406258	5.524150403297
3	153	46.522913487978	4.615416749814
3	157	47.476163609857	3.884068224186
3	165	51.339561571406	3.561420286976
3	169	53.538236595633	3.273556456269
3	179	55.782859426365	3.207781890792
3	181	56.448856533399	1.570187012767
3	188	58.110064444009	0
3	194	59.996204698046	0
3	201	61.573140499665	1.090077422437
3	203	62.993858741117	1.502985391406
3	208	65.005402289038	0
3	216	69.511583434893	0
3	221	71.091170249922	0.905213196018
3	225	72.177053009794	0.198653363754
3	232	74.16300260381	0
3	242	75.819710849797	0
3	250	77.519964516037	0
3	256	80.150703652789	0
3	259	82.38718343205	0.557765449941
3	264	84.831713395258	0
3	268	87.354330553375	0
3	278	93.185805629863	0
3	290	94.927501469641	0
3	296	97.029781337057	0
3	309	99.961655193463	2.118401941315
3	311	100.496866370384	1.100716783267
3	317	102.948024570207	0.776185337606
3	327	104.299842047857	1.071998379471
3	329	104.808449402057	1.456790411624
3	333	107.000586227115	3.037027953443
3	339	108.917839267276	3.484474868431
3	341	110.512961244792	2.698071533591
3	346	111.576031267556	0
3	360	114.615806374123	0
3	363	116.347620080221	1.092625369889
3	367	117.825338167796	1.076072168
3	373	120.271458905286	1.822568411421
3	377	120.92973692927	0.797749980889
3	383	123.811627875034	2.074867673555
3	393	126.987986982465	2.58257346999
3	401	128.595745297012	1.377308963484
3	407	130.896012649663	3.423864189188
3	413	132.66700290451	4.551272920814
3	415	134.062753510339	2.133833903282
3	421	136.049827356512	1.189689906479
3	429	138.808760163052	2.225555420645
3	435	140.247950348662	1.597610741283
3	443	141.941461063363	1.247410293202
3	447	143.324854179598	2.61087581572
3	453	144.773977850275	3.855311217249
3	459	147.641416954417	3.519033089318
3	463	148.991201868363	3.199876903639
3	469	150.546320057014	2.707747934632
3	473	152.628278821045	3.387870348562
3	477	153.296210538933	1.597907077199
3	481	154.585935925087	1.46747153181
3	487	157.066859378124	2.927583219586
3	499	161.07607346814	5.316876019802
3	503	162.37416276543	1.879288753824
3	507	165.062138484616	1.884005742237
3	513	167.067710862497	1.49165564438
3	521	169.328206733548	2.484858632977
3	525	170.013929437962	0.866424471429
3	529	171.623744550878	0.220046146857
3	535	175.245228550012	0.433135378092
3	545	177.022453115942	1.725969550899
3	551	177.880528321262	1.376007056095
3	556	178.867930029937	0
3	560	180.94066104975	0
3	576	182.59447751215	0
3	581	185.406080044756	0.431012884218
3	586	187.092951565643	0
3	592	190.939144120201	0
3	596	191.827632794835	0
3	602	193.122721345482	0
3	607	196.547983122655	0.440282767514
3	619	199.463489374928	2.421686114091
4	24	4.68695176766	4.68695176766
4	30	6.894722052155	5.815510399131
4	40	8.738956840627	7.385528026417
4	48	11.516506062325	9.845658053662
4	56	13.774429729688	11.564973805672
4	62	15.998360632389	13.595136963368
4	68	19.076673258339	15.663163567969
4	74	20.535935775096	16.710196816798
4	80	23.25052003281	17.208994382821
4	82	23.742595741698	16.614391334457
4	86	25.00565363112	16.705442294857
4	92	27.051694494802	18.695943903305
4	100	29.576342933191	19.691675836792
4	102	30.578109571793	19.057427852634
4	106	31.312813590079	16.778466372934
4	112	33.377671749086	16.485917526853
4	116	34.755973611897	14.33031695248
4	122	36.858334597143	12.222871968465
4	130	39.664515062874	14.34511480125
4	136	40.161096311942	11.242608592321
4	144	42.494821958441	11.414971858795
4	146	43.540379098247	9.346085255344
4	150	46.02360406258	7.155574619842
4	154	46.522913487978	7.179313324843
4	158	47.476163609857	7.422268051246
4	166	51.339561571406	11.175987825346
4	170	53.538236595633	7.103034010436
4	180	55.782859426365	9.245168231402
4	182	56.448856533399	6.766846600832
4	186	56.868868708847	2.512466096044
4	190	58.518553974343	3.213857053385
4	202	61.573140499665	5.90694792187
4	204	62.993858741117	6.431147372428
4	206	63.646516479597	4.494565455913
4	212	66.799522652093	5.560746802471
4	222	71.091170249922	5.327852610217
4	226	72.177053009794	3.321264735648
4	230	73.687849135856	3.636706350457
4	234	74.367230347108	1.437371710856
4	244	75.951464544415	1.10140844155
4	252	77.56658557976	2.698431851335
4	260	82.38718343205	6.634969349791
4	262	83.673053580403	6.648663357858
4	266	86.356548135469	9.300262447687
4	270	88.883345325747	11.200373127575
4	288	94.526449175887	4.997470846651
4	294	95.949818194351	5.953016453746
4	310	99.961655193463	7.478561434759
4	312	100.496866370384	6.550570834127
4	318	102.948024570207	8.94860779765
4	328	104.299842047857	10.073269551944
4	330	104.808449402057	10.524447221622
4	334	107.000586227115	11.290658495776
4	340	108.917839267276	11.659929831633
4	342	110.512961244792	12.602708113283
4	344	111.480395188851	12.915400192648
4	348	112.351570466381	13.594530434516
4	364	116.347620080221	15.827964057015
4	368	117.825338167796	13.952442598879
4	374	120.271458905286	12.415088687502
4	378	120.92973692927	8.109706979496
4	384	123.811627875034	10.966326976394
4	394	126.987986982465	13.864691504787
4	402	128.595745297012	15.323058150562
4	408	130.896012649663	16.926026826954
4	414	132.66700290451	11.857703884339
4	416	134.062753510339	12.796242291935
4	422	136.049827356512	11.251356103823
4	430	138.808760163052	13.929304183623
4	436	140.247950348662	14.036087064321
4	444	141.941461063363	12.366909569632
4	448	143.324854179598	12.793775626261
4	454	144.773977850275	12.821137344587
4	460	147.641416954417	13.475894936139
4	464	148.991201868363	11.935784289629
4	470	150.546320057014	10.696146899432
4	474	152.628278821045	12.577784630494
4	478	153.296210538933	9.978720601934
4	482	154.585935925087	10.483789929733
4	488	157.066859378124	10.308164560611
4	500	161.07607346814	11.993901922442
4	504	162.37416276543	7.339491777029
4	508	165.062138484616	6.723415981536
4	514	167.067710862497	8.346774692664
4	522	169.328206733548	10.443722218253
4	526	170.013929437962	10.839210351826
4	530	171.623744550878	10.086003535478
4	536	175.245228550012	7.795609823934
4	546	177.022453115942	8.04407497316
4	552	177.880528321262	8.056714037733
4	554	178.584677777702	4.228738062916
4	558	180.872708750961	5.284840177384
4	570	181.424306515884	5.565883749513
4	582	185.406080044756	8.199973719592
4	584	186.87735898507	9.099351648597
4	590	189.33914154329	8.267264524817
4	594	191.71848692629	10.547942013481
4	598	192.001371933174	10.71999339994
4	608	196.547983122655	15.2346039801
4	620	199.463489374928	17.059987905947

