version 3
run TandemQueueExperiment-0-20211218-16:50:49-61921
attr configname TandemQueueExperiment
attr datetime 20211218-16:50:49
attr datetimef 20211218-165049
attr experiment TandemQueueExperiment
attr inifile omnetpp.ini
attr iterationvars $serviceTimeMean=1.5s
attr iterationvarsd serviceTimeMean=1.5s
attr iterationvarsf serviceTimeMean=1.5s-
attr measurement $serviceTimeMean=1.5s
attr network TandemQueues
attr processid 61921
attr repetition 0
attr replication #0
attr resultdir results
attr runnumber 0
attr seedset 0
itervar serviceTimeMean 1.5s
config cmdenv-redirect-output true
config network TandemQueues
config **.interarrivalTime exponential(2s)
config **.serviceTime truncnormal(1.5s,1s)
config repeat 2
config sim-time-limit 200s
config sim-time-limit 100h
config cpu-time-limit 300s

vector 0 TandemQueues.fifo1 qlen:vector ETV
attr interpolationmode sample-hold
attr recordingmode vector
attr title "queue length"
vector 1 TandemQueues.fifo2 qlen:vector ETV
attr interpolationmode sample-hold
attr recordingmode vector
attr title "queue length"
vector 2 TandemQueues.fifo1 queueingTime:vector ETV
attr interpolationmode none
attr recordingmode vector
attr title "queueing time"
attr unit s
vector 3 TandemQueues.fifo2 queueingTime:vector ETV
attr interpolationmode none
attr recordingmode vector
attr title "queueing time"
attr unit s
vector 4 TandemQueues.sink lifetime:vector ETV
attr interpolationmode none
attr recordingmode vector
attr title "lifetime of arrived jobs"
attr unit s
0	0	0	0
0	10	2.562005336575	1
0	11	2.776060606459	0
0	44	21.934196632243	1
0	45	22.714211445462	0
0	48	23.172055551496	1
0	51	24.445352191134	0
0	74	33.94129189854	1
0	76	34.265564877432	2
0	77	34.749156381174	1
0	81	35.722958168327	0
0	84	36.159558231782	1
0	85	36.326435635751	0
0	118	48.420488698592	1
0	120	48.635758914904	2
0	122	50.751411741608	3
0	123	50.79480414233	2
0	126	51.220014779159	3
0	130	52.290144133326	4
0	131	53.045720418287	3
0	134	53.546027295308	4
0	136	54.371029755153	5
0	137	54.585455508634	4
0	140	54.604940574738	5
0	141	55.253402172364	4
0	146	55.368052261486	5
0	148	56.288080176967	6
0	149	56.850019214231	5
0	154	58.460618938724	6
0	157	60.198181838427	5
0	162	62.100256777293	6
0	164	62.214910630141	7
0	168	64.071867623944	8
0	169	64.342412013692	7
0	172	65.271761397226	8
0	176	65.936581879153	9
0	177	67.469160420591	8
0	181	68.647938096781	7
0	183	69.958930547933	6
0	187	72.359711366501	5
0	191	72.451038971765	4
0	193	73.166900676257	3
0	196	73.719722124844	4
0	198	73.917022741681	5
0	201	75.721221365476	4
0	203	76.822352789029	3
0	208	78.997631757598	4
0	209	79.19669375251	3
0	212	79.28029318472	4
0	215	80.393571811203	3
0	221	81.384074827579	2
0	223	81.599310317324	1
0	228	82.962858127694	2
0	231	83.158078295173	1
0	234	83.592301449403	2
0	238	84.728109756364	3
0	239	85.459945387961	2
0	243	86.118931746144	1
0	246	86.444895692022	2
0	252	88.724111619088	3
0	253	89.634563252897	2
0	255	90.988600317257	1
0	258	91.128588753581	2
0	262	92.190033746814	3
0	265	93.1546549203	2
0	271	95.293014579499	1
0	276	96.44903253895	2
0	277	96.586658962191	1
0	282	97.972768081542	2
0	283	98.391706474772	1
0	285	98.801792427167	0
0	288	99.07556006181	1
0	289	99.94292392043	0
0	304	103.73549140487	1
0	308	105.423268350052	2
0	311	105.722256939802	1
0	314	107.028372321569	2
0	317	108.650010938018	1
0	322	109.140071538888	2
0	324	109.344712768593	3
0	328	110.48963587145	4
0	329	110.713011702025	3
0	333	112.076048005418	2
0	337	113.948596217389	1
0	341	117.441790796615	0
0	346	118.765255392471	1
0	348	120.677188240316	2
0	349	120.898911112775	1
0	352	121.042265444081	2
0	353	122.492243172715	1
0	355	123.058202197822	0
0	386	143.127496622567	1
0	387	143.348231707575	0
0	392	144.472417656234	1
0	394	144.509808597076	2
0	395	144.670921318758	1
0	398	144.884846499481	2
0	402	145.732160702194	3
0	403	146.673062055686	2
0	405	146.890955645014	1
0	408	147.606438137641	2
0	410	147.966352820745	3
0	411	148.444332025388	2
0	416	149.35275235982	3
0	418	149.896088500505	4
0	421	151.26900701199	3
0	425	152.174422245589	2
0	427	153.681504857103	1
0	435	156.759894715875	0
0	444	160.170379804372	1
0	446	160.348688384362	2
0	448	160.468250310193	3
0	452	160.584395034425	4
0	455	161.113007115295	3
0	458	161.331734623214	4
0	459	161.930490580019	3
0	462	162.895686064965	4
0	464	163.034921407112	5
0	469	163.567079556462	4
0	473	164.58071952287	3
0	477	165.611973392621	2
0	480	165.758784855723	3
0	482	165.800519292943	4
0	484	166.321222116037	5
0	487	168.339307711172	4
0	491	168.959573047331	3
0	494	169.161989027207	4
0	496	169.162099730997	5
0	499	170.891553490937	4
0	501	172.26412918568	3
0	506	173.283742212759	4
0	508	174.501831438177	5
0	509	174.583047453304	4
0	513	176.330191247027	3
0	516	176.828058005028	4
0	517	177.743553953554	3
0	521	178.945341677962	2
0	523	179.255834172584	1
0	525	180.701327273331	0
0	530	181.073551312912	1
0	532	182.010904264866	2
0	535	182.589251921681	1
0	538	184.089315538029	2
0	541	184.402754264707	1
0	544	185.856886850095	2
0	547	187.128927526723	1
0	552	188.103807849191	2
0	553	188.870832907679	1
0	556	189.112367715694	2
0	559	189.348363418914	1
0	563	191.133256156998	0
1	0	0	0
1	38	19.5157174395	1
1	39	20.235924396993	0
1	46	22.714211445462	1
1	49	23.738062320956	0
1	52	24.445352191134	1
1	54	24.701696710629	2
1	55	25.146004421939	1
1	59	26.104980793825	0
1	62	26.537166416618	1
1	63	27.501518057239	0
1	78	34.749156381174	1
1	79	35.319031509978	0
1	82	35.722958168327	1
1	86	36.326435635751	2
1	88	37.110827160528	3
1	91	37.746420894092	2
1	94	38.15803897775	3
1	98	39.156550823256	4
1	99	39.671367919386	3
1	101	41.881882163531	2
1	103	42.949943846653	1
1	105	44.452208961483	0
1	138	54.585455508634	1
1	142	55.253402172364	2
1	143	55.30230172201	1
1	150	56.850019214231	2
1	151	57.431000901467	1
1	155	58.607103883804	0
1	158	60.198181838427	1
1	159	61.339027354179	0
1	184	69.958930547933	1
1	185	70.787480611451	0
1	188	72.359711366501	1
1	189	72.362840719061	0
1	192	72.451038971765	1
1	194	73.166900676257	2
1	199	74.718630368665	1
1	202	75.721221365476	2
1	204	76.822352789029	3
1	205	77.353929315572	2
1	210	79.19669375251	3
1	213	79.667343844739	2
1	216	80.393571811203	3
1	217	81.090946965509	2
1	219	81.334465569894	1
1	222	81.384074827579	2
1	224	81.599310317324	3
1	225	82.937130937451	2
1	229	83.073760525968	1
1	232	83.158078295173	2
1	235	84.428862319433	1
1	240	85.459945387961	2
1	241	85.957875357908	1
1	244	86.118931746144	2
1	247	87.698137541591	1
1	249	88.164439881972	0
1	254	89.634563252897	1
1	256	90.988600317257	2
1	259	91.58261674144	1
1	263	92.628825617735	0
1	266	93.1546549203	1
1	267	93.467379032505	0
1	286	98.801792427167	1
1	290	99.94292392043	2
1	291	101.018456494269	1
1	294	101.095532901266	2
1	298	101.594337126147	3
1	299	101.902856897903	2
1	305	104.755950907124	1
1	309	105.469339521735	0
1	312	105.722256939802	1
1	315	108.247244648746	0
1	318	108.650010938018	1
1	319	108.947761384013	0
1	354	122.492243172715	1
1	356	123.058202197822	2
1	357	123.681971239292	1
1	360	124.099807053811	2
1	364	124.754147511067	3
1	365	125.417756355661	2
1	367	125.954126864599	1
1	369	128.974178289076	0
1	388	143.348231707575	1
1	389	143.742408786479	0
1	396	144.670921318758	1
1	399	145.528781165715	0
1	404	146.673062055686	1
1	406	146.890955645014	2
1	412	148.444332025388	3
1	413	149.189592065677	2
1	419	150.277036884125	1
1	422	151.26900701199	2
1	423	151.524491400228	1
1	426	152.174422245589	2
1	428	153.681504857103	3
1	429	153.839397065049	2
1	431	154.524396016073	1
1	433	156.260344464444	0
1	436	156.759894715875	1
1	437	157.878585785022	0
1	440	158.385130023082	1
1	449	160.519583933096	0
1	460	161.930490580019	1
1	465	163.206548985247	0
1	502	172.26412918568	1
1	503	172.704568131008	0
1	510	174.583047453304	1
1	511	175.647998187421	0
1	514	176.330191247027	1
1	518	177.743553953554	2
1	519	178.815792096039	1
1	522	178.945341677962	2
1	524	179.255834172584	3
1	526	180.701327273331	4
1	527	180.983894118978	3
1	533	182.355003650075	2
1	536	182.589251921681	3
1	539	184.099287446704	2
1	542	184.402754264707	3
1	545	186.790096261497	2
1	548	187.128927526723	3
1	549	188.087094693591	2
1	554	188.870832907679	3
1	557	189.138854760258	2
1	560	189.348363418914	3
1	561	190.81690087076	2
1	564	191.133256156998	3
1	566	192.469639435599	4
1	569	193.136013295635	3
1	572	194.306805375494	4
1	573	194.622092443116	3
1	575	196.484693383151	2
1	579	198.590960073893	1
1	582	199.778687620069	2
2	2	0	0
2	6	1.591749009132	0
2	11	2.776060606459	0.214055269884
2	20	7.009054180648	0
2	26	10.353476581298	0
2	30	15.549984752996	0
2	36	17.639209769612	0
2	42	20.650778286887	0
2	45	22.714211445462	0.780014813219
2	51	24.445352191134	1.273296639638
2	58	25.443933434916	0
2	68	31.23277439089	0
2	72	33.903354760138	0
2	77	34.749156381174	0.807864482634
2	81	35.722958168327	1.457393290895
2	85	36.326435635751	0.166877403969
2	90	37.355050385419	0
2	96	38.504115198901	0
2	110	45.50454256781	0
2	114	46.408746688259	0
2	123	50.79480414233	2.374315443738
2	131	53.045720418287	4.409961503383
2	137	54.585455508634	3.834043767026
2	141	55.253402172364	4.033387393205
2	149	56.850019214231	4.559875080905
2	157	60.198181838427	6.652154543119
2	169	64.342412013692	9.971382258539
2	177	67.469160420591	12.864219845853
2	181	68.647938096781	13.279885835295
2	183	69.958930547933	13.670850370966
2	187	72.359711366501	13.899092427777
2	191	72.451038971765	10.350782194472
2	193	73.166900676257	10.951990046116
2	201	75.721221365476	11.649353741532
2	203	76.822352789029	11.550591391803
2	209	79.19669375251	13.260111873357
2	215	80.393571811203	6.673849686359
2	221	81.384074827579	7.467052085898
2	223	81.599310317324	2.601678559726
2	231	83.158078295173	3.877785110453
2	239	85.459945387961	2.497087260267
2	243	86.118931746144	2.526630296741
2	253	89.634563252897	4.906453496533
2	255	90.988600317257	4.543704625235
2	265	93.1546549203	4.430543301212
2	271	95.293014579499	4.164425825918
2	277	96.586658962191	4.396625215377
2	283	98.391706474772	1.942673935822
2	285	98.801792427167	0.829024345625
2	289	99.94292392043	0.86736385862
2	296	101.593647096338	0
2	302	103.51839720788	0
2	311	105.722256939802	1.986765534932
2	317	108.650010938018	3.226742587966
2	329	110.713011702025	3.684639380456
2	333	112.076048005418	2.93597646653
2	337	113.948596217389	4.603883448796
2	341	117.441790796615	6.952154925165
2	349	120.898911112775	2.133655720304
2	353	122.492243172715	1.815054932399
2	355	123.058202197822	2.015936753741
2	362	124.335703646735	0
2	374	132.435397324344	0
2	380	139.855318508152	0
2	384	142.750906672129	0
2	387	143.348231707575	0.220735085008
2	395	144.670921318758	0.198503662524
2	403	146.673062055686	2.16325345861
2	405	146.890955645014	2.006109145533
2	411	148.444332025388	2.712171323194
2	421	151.26900701199	3.662568874349
2	425	152.174422245589	4.208069424844
2	427	153.681504857103	4.328752497283
2	435	156.759894715875	6.86380621537
2	442	159.654354276492	0
2	455	161.113007115295	0.942627310923
2	459	161.930490580019	1.581802195657
2	469	163.567079556462	3.098829246269
2	473	164.58071952287	3.996324488445
2	477	165.611973392621	4.280238769407
2	487	168.339307711172	5.443621646207
2	491	168.959573047331	5.924651640219
2	499	170.891553490937	5.132768635214
2	501	172.26412918568	6.463609892737
2	509	174.583047453304	8.261825337267
2	513	176.330191247027	7.16820221982
2	517	177.743553953554	8.581454222557
2	521	178.945341677962	5.661599465203
2	523	179.255834172584	4.754002734407
2	525	180.701327273331	3.873269268303
2	535	182.589251921681	1.515700608769
2	541	184.402754264707	2.391849999841
2	547	187.128927526723	3.039611988694
2	553	188.870832907679	3.013946057584
2	559	189.348363418914	1.244555569723
2	563	191.133256156998	2.020888441304
2	568	192.782894521573	0
2	578	198.424166418403	0
3	4	1.209121117056	0
3	12	2.776060606459	0
3	16	4.608908203368	0
3	22	7.291824597631	0
3	28	13.56894416318	0
3	34	16.913262621606	0
3	39	20.235924396993	0.720206957493
3	49	23.738062320956	1.023850875494
3	55	25.146004421939	0.700652230805
3	59	26.104980793825	1.403284083196
3	63	27.501518057239	0.964351640621
3	70	32.963036472059	0
3	79	35.319031509978	0.569875128804
3	91	37.746420894092	2.023462725765
3	99	39.671367919386	3.344932283635
3	101	41.881882163531	4.771055003003
3	103	42.949943846653	4.791904868903
3	105	44.452208961483	5.295658138227
3	112	46.202705819033	0
3	124	50.79480414233	0
3	132	53.045720418287	0
3	143	55.30230172201	0.716846213376
3	151	57.431000901467	2.177598729103
3	155	58.607103883804	1.757084669573
3	159	61.339027354179	1.140845515752
3	170	64.342412013692	0
3	178	67.469160420591	0
3	182	68.647938096781	0
3	185	70.787480611451	0.828550063518
3	189	72.362840719061	0.00312935256
3	199	74.718630368665	2.2675913969
3	205	77.353929315572	4.187028639315
3	213	79.667343844739	3.946122479263
3	217	81.090946965509	4.26859417648
3	219	81.334465569894	2.137771817384
3	225	82.937130937451	2.543559126248
3	229	83.073760525968	1.689685698389
3	235	84.428862319433	2.829552002109
3	241	85.957875357908	2.799797062735
3	247	87.698137541591	2.23819215363
3	249	88.164439881972	2.045508135828
3	259	91.58261674144	1.948053488543
3	263	92.628825617735	1.640225300478
3	267	93.467379032505	0.312724112205
3	272	95.293014579499	0
3	278	96.586658962191	0
3	284	98.391706474772	0
3	291	101.018456494269	2.216664067102
3	299	101.902856897903	1.959932977473
3	305	104.755950907124	3.660418005858
3	309	105.469339521735	3.875002395588
3	315	108.247244648746	2.524987708944
3	319	108.947761384013	0.297750445995
3	330	110.713011702025	0
3	334	112.076048005418	0
3	338	113.948596217389	0
3	342	117.441790796615	0
3	350	120.898911112775	0
3	357	123.681971239292	1.189728066577
3	365	125.417756355661	2.359554157839
3	367	125.954126864599	1.854319810788
3	369	128.974178289076	4.220030778009
3	376	134.048366152906	0
3	382	142.242416435243	0
3	389	143.742408786479	0.394177078904
3	399	145.528781165715	0.857859846957
3	413	149.189592065677	2.516530009991
3	419	150.277036884125	3.386081239111
3	423	151.524491400228	3.08015937484
3	429	153.839397065049	2.570390053059
3	431	154.524396016073	2.349973770484
3	433	156.260344464444	2.578839607341
3	437	157.878585785022	1.118691069147
3	449	160.519583933096	2.134453910014
3	456	161.113007115295	0
3	465	163.206548985247	1.276058405228
3	470	163.567079556462	0
3	474	164.58071952287	0
3	478	165.611973392621	0
3	488	168.339307711172	0
3	492	168.959573047331	0
3	500	170.891553490937	0
3	503	172.704568131008	0.440438945328
3	511	175.647998187421	1.064950734117
3	519	178.815792096039	2.485600849012
3	527	180.983894118978	3.240340165424
3	533	182.355003650075	3.409661972113
3	539	184.099287446704	4.84345327412
3	545	186.790096261497	6.088768988166
3	549	188.087094693591	5.49784277191
3	557	189.138854760258	4.736100495551
3	561	190.81690087076	3.687973344037
3	569	193.136013295635	4.265180387956
3	573	194.622092443116	5.273729024202
3	575	196.484693383151	5.351437226153
3	579	198.590960073893	6.121320638294
4	8	1.858581397795	1.858581397795
4	14	3.682710935558	2.090961926426
4	18	6.40428530888	3.842279972305
4	24	7.779164682735	0.770110502087
4	32	15.843629119861	5.490152538563
4	40	20.235924396993	4.685939643997
4	50	23.738062320956	6.098852551344
4	56	25.146004421939	4.495226135052
4	60	26.104980793825	4.170784161582
4	64	27.501518057239	4.329462505743
4	66	29.098923379083	3.654989944167
4	80	35.319031509978	4.086257119088
4	92	37.746420894092	3.843066133954
4	100	39.671367919386	5.730076020846
4	102	41.881882163531	7.616317286099
4	104	42.949943846653	6.790385614871
4	106	44.452208961483	7.097158576064
4	108	45.27390779181	6.769792592909
4	116	47.443339896049	1.938797328239
4	128	52.267494977444	5.858748289185
4	144	55.30230172201	6.881813023418
4	152	57.431000901467	8.795241986563
4	156	58.607103883804	7.855692142196
4	160	61.339027354179	10.11901257502
4	166	64.020127546982	11.729983413656
4	174	65.578405668753	12.032378373445
4	180	68.137127666989	13.766097911836
4	186	70.787480611451	16.182540036713
4	190	72.362840719061	16.994788457575
4	200	74.718630368665	18.430550191698
4	206	77.353929315572	18.893310376848
4	214	79.667343844739	17.567087067446
4	218	81.090946965509	18.876036335368
4	220	81.334465569894	17.26259794595
4	226	82.937130937451	17.665369540225
4	230	83.073760525968	17.137178646815
4	236	84.428862319433	10.709140194589
4	242	85.957875357908	12.040852616227
4	248	87.698137541591	8.700505783993
4	250	88.164439881972	8.884146697252
4	260	91.58261674144	8.619758613746
4	264	92.628825617735	9.036524168332
4	268	93.467379032505	8.739269276141
4	270	94.050953438705	7.606057746683
4	274	95.324845480635	6.600733861547
4	280	96.951758200367	5.823169446786
4	292	101.018456494269	8.828422747455
4	300	101.902856897903	5.453824358953
4	306	104.755950907124	6.783182825582
4	310	105.469339521735	6.393779459925
4	316	108.247244648746	6.653597552408
4	320	108.947761384013	5.429364176133
4	326	110.076170995971	6.340679591101
4	332	110.73563751733	5.312369167278
4	336	112.230425082715	5.202052761146
4	340	115.918480932349	6.778409393461
4	344	118.347077501665	9.002364733072
4	358	123.681971239292	13.192335367842
4	366	125.417756355661	6.65250096319
4	368	125.954126864599	5.276938624283
4	370	128.974178289076	7.931912844995
4	372	129.142653122051	4.806949475316
4	378	136.270738326632	3.835341002288
4	390	143.742408786479	3.887090278327
4	400	145.528781165715	2.777874493586
4	414	149.189592065677	6.06209544311
4	420	150.277036884125	5.804619227891
4	424	151.524491400228	7.014682803152
4	430	153.839397065049	8.954550565568
4	432	154.524396016073	8.792235313879
4	434	156.260344464444	8.653906326803
4	438	157.878585785022	9.912232964277
4	450	160.519583933096	11.166831573276
4	454	160.95508780234	11.058999301835
4	466	163.206548985247	3.552194708755
4	468	163.211832286837	3.041452482465
4	472	164.096931921129	3.748243536767
4	476	165.407982483305	4.939732173112
4	486	167.620754796282	7.036359761857
4	490	168.61476528539	7.283030662176
4	498	169.624895157319	6.729209092354
4	504	172.704568131008	9.669646723896
4	512	175.647998187421	9.889213331698
4	520	178.815792096039	13.015272803096
4	528	180.983894118978	14.662672002941
4	534	182.355003650075	13.193014622868
4	540	184.099287446704	14.937187715707
4	546	186.790096261497	13.506354048738
4	550	188.087094693591	13.585263255414
4	558	189.138854760258	12.31079675523
4	562	190.81690087076	9.743349557848
4	570	193.136013295635	11.125109030769
4	574	194.622092443116	10.532776905087
4	576	196.484693383151	10.627806533056
4	580	198.590960073893	10.487152224702

