version 3
run TandemQueueExperiment-2-20211218-16:50:49-61923
attr configname TandemQueueExperiment
attr datetime 20211218-16:50:49
attr datetimef 20211218-165049
attr experiment TandemQueueExperiment
attr inifile omnetpp.ini
attr iterationvars $serviceTimeMean=2.5s
attr iterationvarsd serviceTimeMean=2.5s
attr iterationvarsf serviceTimeMean=2.5s-
attr measurement $serviceTimeMean=2.5s
attr network TandemQueues
attr processid 61923
attr repetition 0
attr replication #0
attr resultdir results
attr runnumber 2
attr seedset 2
itervar serviceTimeMean 2.5s
config cmdenv-redirect-output true
config network TandemQueues
config **.interarrivalTime exponential(2s)
config **.serviceTime truncnormal(2.5s,1s)
config repeat 2
config sim-time-limit 200s
config sim-time-limit 100h
config cpu-time-limit 300s

vector 0 TandemQueues.fifo1 qlen:vector ETV
attr interpolationmode sample-hold
attr recordingmode vector
attr title "queue length"
vector 1 TandemQueues.fifo2 qlen:vector ETV
attr interpolationmode sample-hold
attr recordingmode vector
attr title "queue length"
vector 2 TandemQueues.fifo1 queueingTime:vector ETV
attr interpolationmode none
attr recordingmode vector
attr title "queueing time"
attr unit s
vector 3 TandemQueues.fifo2 queueingTime:vector ETV
attr interpolationmode none
attr recordingmode vector
attr title "queueing time"
attr unit s
vector 4 TandemQueues.sink lifetime:vector ETV
attr interpolationmode none
attr recordingmode vector
attr title "lifetime of arrived jobs"
attr unit s
0	0	0	0
0	4	1.145383979254	1
0	5	3.131323452819	0
0	10	6.508420500167	1
0	11	6.826950756762	0
0	14	7.599143534603	1
0	15	8.901797602971	0
0	20	9.999521407749	1
0	22	10.620269338991	2
0	25	12.415158877014	1
0	28	12.623627450426	2
0	30	12.912707998663	3
0	32	14.29325529538	4
0	35	15.494293232722	3
0	38	15.734613218016	4
0	40	16.332768278109	5
0	43	18.526601709887	4
0	45	19.770353920041	3
0	48	20.18072714045	4
0	51	22.817967468479	3
0	55	25.231356706404	2
0	60	27.169485701102	3
0	61	27.918771145524	2
0	64	28.985859554381	3
0	68	29.48749337403	4
0	70	29.985201391041	5
0	71	30.61271253976	4
0	76	31.70742471803	5
0	78	32.158074643165	6
0	82	33.422832091635	7
0	83	33.570819115354	6
0	87	34.621603393483	5
0	90	35.468395455176	6
0	91	36.003646105062	5
0	95	39.466758840044	4
0	99	42.897725453734	3
0	104	44.856834790111	4
0	108	46.531535719114	5
0	110	47.130324969991	6
0	111	47.494856965795	5
0	114	48.245970637352	6
0	115	48.316607774558	5
0	118	49.507602167342	6
0	121	50.629211188085	5
0	127	54.725051377941	4
0	130	55.654653496792	5
0	132	56.154137224862	6
0	134	56.209295625032	7
0	137	58.326724879191	6
0	140	58.955115594712	7
0	141	60.14181626104	6
0	147	64.981807130345	5
0	149	66.233379603663	4
0	154	69.138375904851	5
0	155	69.290025702208	4
0	160	70.248706163148	5
0	162	70.342216462185	6
0	163	71.251349685726	5
0	167	73.061826199739	4
0	174	75.737284665747	5
0	176	76.338805109454	6
0	177	76.447512566904	5
0	180	78.04375926724	6
0	181	78.170010113551	5
0	183	80.593499386978	4
0	188	80.713039193974	5
0	190	81.19192361068	6
0	192	81.81967128367	7
0	194	82.718591191187	8
0	198	84.466418552407	9
0	199	84.70289999472	8
0	202	85.369413267704	9
0	203	85.729898517386	8
0	206	86.349902439837	9
0	207	86.522080335323	8
0	211	89.500034673882	7
0	217	91.138670036103	6
0	220	91.267808908345	7
0	222	91.353201631062	8
0	226	93.435856676405	9
0	227	94.481610459824	8
0	230	95.578896234248	9
0	232	96.10003149968	10
0	236	97.178322021232	11
0	237	97.379125321807	10
0	242	98.973732864654	11
0	245	100.210771120513	10
0	250	103.241988418985	11
0	251	103.582258869615	10
0	254	104.33537203269	11
0	255	104.731294675803	10
0	259	106.774050207612	9
0	262	107.540154183993	10
0	265	109.881799046278	9
0	268	110.832473550126	10
0	270	111.444922130556	11
0	271	111.513437777066	10
0	278	115.955289892314	11
0	279	116.012223899222	10
0	282	117.830533986447	11
0	283	118.643958611178	10
0	288	120.470217988502	11
0	291	122.255838563054	10
0	294	122.259557094413	11
0	298	123.272075865147	12
0	300	123.836300850923	13
0	301	123.914968694508	12
0	305	125.788822648462	11
0	309	128.474354968555	10
0	312	129.341811655688	11
0	314	130.041415478488	12
0	316	130.426441438981	13
0	320	130.8411948077	14
0	321	132.15000843052	13
0	325	134.827186139614	12
0	328	135.081561072457	13
0	332	136.356644926608	14
0	333	137.204805696076	13
0	337	139.397428746287	12
0	340	140.432608848792	13
0	342	140.960847907149	14
0	343	141.581059937385	13
0	346	141.777069108566	14
0	348	142.129270760443	15
0	350	142.624373724892	16
0	353	144.83749071045	15
0	358	146.707061152961	16
0	359	147.254828060902	15
0	364	148.659526595823	16
0	366	149.181150009078	17
0	367	149.35020184419	16
0	372	150.759905470685	17
0	374	150.822039673378	18
0	377	153.401664425997	17
0	382	156.289875314347	18
0	384	156.425712933178	19
0	386	156.615148475385	20
0	388	156.704099937798	21
0	389	157.031749737981	20
0	392	157.591182650876	21
0	396	159.798997513817	22
0	398	159.86067535534	23
0	399	160.52739596614	22
0	403	162.303995145334	21
0	408	164.039925060683	22
0	409	164.535998249478	21
0	413	164.758035095346	20
0	417	167.733993052873	19
0	421	170.19218035964	18
0	425	172.14667135817	17
0	430	173.69261867979	18
0	431	174.882673876761	17
0	436	176.15442420805	18
0	438	176.17614356038	19
0	439	177.407092038132	18
0	442	177.573583912502	19
0	444	178.130808669863	20
0	448	178.937364804216	21
0	452	181.198436184691	22
0	453	181.778432497366	21
0	457	183.782399470328	20
0	460	185.100033583969	21
0	461	185.498470345828	20
0	463	186.431045238076	19
0	468	187.768200643188	20
0	469	188.997448191102	19
0	475	192.495306403866	18
0	478	193.410095261423	19
0	480	193.550372114403	20
0	484	194.533510490254	21
0	485	195.072593218518	20
0	488	196.548916829153	21
0	489	197.733357355611	20
0	497	199.914511011142	19
1	0	0	0
1	16	8.901797602971	1
1	17	9.489771905441	0
1	46	19.770353920041	1
1	49	21.609783665248	0
1	52	22.817967468479	1
1	53	23.764386488411	0
1	56	25.231356706404	1
1	57	27.052135570164	0
1	62	27.918771145524	1
1	65	29.030929301708	0
1	72	30.61271253976	1
1	73	31.583095083458	0
1	92	36.003646105062	1
1	93	37.494703550189	0
1	96	39.466758840044	1
1	97	40.348843396042	0
1	100	42.897725453734	1
1	101	43.089276583011	0
1	116	48.316607774558	1
1	119	50.150046001287	0
1	122	50.629211188085	1
1	123	50.929500580444	0
1	142	60.14181626104	1
1	143	61.111453833819	0
1	150	66.233379603663	1
1	151	67.628778144974	0
1	156	69.290025702208	1
1	157	69.450389907295	0
1	164	71.251349685726	1
1	165	72.020723173811	0
1	168	73.061826199739	1
1	169	73.448076962327	0
1	182	78.170010113551	1
1	184	80.593499386978	2
1	185	80.638751431929	1
1	195	83.413948161209	0
1	200	84.70289999472	1
1	204	85.729898517386	2
1	208	86.522080335323	3
1	209	87.939968531363	2
1	212	89.500034673882	3
1	213	89.649619753086	2
1	215	90.682986308259	1
1	218	91.138670036103	2
1	223	92.822833387549	1
1	228	94.481610459824	2
1	233	96.903369167005	1
1	238	97.379125321807	2
1	239	98.131424436916	1
1	243	100.032452725301	0
1	246	100.210771120513	1
1	247	102.992409309573	0
1	252	103.582258869615	1
1	256	104.731294675803	2
1	257	106.265969480158	1
1	260	106.774050207612	2
1	263	108.940703750581	1
1	266	109.881799046278	2
1	272	111.513437777066	3
1	273	111.840266474952	2
1	275	115.3733130116	1
1	280	116.012223899222	2
1	284	118.643958611178	3
1	285	118.956954592371	2
1	289	121.783897468031	1
1	292	122.255838563054	2
1	295	123.046677048957	1
1	302	123.914968694508	2
1	303	125.280645514323	1
1	306	125.788822648462	2
1	307	128.070811262607	1
1	310	128.474354968555	2
1	317	130.714358665734	1
1	322	132.15000843052	2
1	323	134.207913071761	1
1	326	134.827186139614	2
1	329	136.024423698643	1
1	334	137.204805696076	2
1	335	138.304266341564	1
1	338	139.397428746287	2
1	344	141.581059937385	3
1	351	142.632956958315	2
1	354	144.83749071045	3
1	355	145.520040542775	2
1	360	147.254828060902	3
1	361	147.833948986902	2
1	368	149.35020184419	3
1	369	150.43078863455	2
1	375	153.35669937357	1
1	378	153.401664425997	2
1	379	155.130200099709	1
1	390	157.031749737981	2
1	393	157.768656450893	1
1	400	160.52739596614	2
1	401	160.619436088755	1
1	404	162.303995145334	2
1	405	163.066901221441	1
1	410	164.535998249478	2
1	411	164.57050417761	1
1	414	164.758035095346	2
1	415	166.362874556473	1
1	418	167.733993052873	2
1	419	167.814874003331	1
1	422	170.19218035964	2
1	423	170.346141267435	1
1	426	172.14667135817	2
1	427	172.81907673972	1
1	432	174.882673876761	2
1	433	176.057321976449	1
1	440	177.407092038132	2
1	445	178.721083221783	1
1	449	179.721668019972	0
1	454	181.778432497366	1
1	455	183.473455303641	0
1	458	183.782399470328	1
1	462	185.498470345828	2
1	464	186.431045238076	3
1	465	187.380507254824	2
1	470	188.997448191102	3
1	471	189.986172735193	2
1	473	191.994911500353	1
1	476	192.495306403866	2
1	481	194.096391060135	1
1	486	195.072593218518	2
1	490	197.733357355611	3
1	491	197.853333428123	2
1	493	198.375901948594	1
1	495	199.896087483328	0
1	498	199.914511011142	1
2	2	0	0
2	5	3.131323452819	1.985939473565
2	11	6.826950756762	0.318530256595
2	15	8.901797602971	1.302654068368
2	25	12.415158877014	2.415637469265
2	35	15.494293232722	4.874023893731
2	43	18.526601709887	5.902974259461
2	45	19.770353920041	6.857645921378
2	51	22.817967468479	8.524712173099
2	55	25.231356706404	9.496743488388
2	61	27.918771145524	11.586002867415
2	71	30.61271253976	10.43198539931
2	83	33.570819115354	6.401333414252
2	87	34.621603393483	5.635743839102
2	91	36.003646105062	6.516152731032
2	95	39.466758840044	9.481557449003
2	99	42.897725453734	11.190300735704
2	111	47.494856965795	15.33678232263
2	115	48.316607774558	14.893775682923
2	121	50.629211188085	15.160815732909
2	127	54.725051377941	9.86821658783
2	137	58.326724879191	11.795189160077
2	141	60.14181626104	13.011491291049
2	147	64.981807130345	16.735836492993
2	149	66.233379603663	16.725777436321
2	155	69.290025702208	13.635372205416
2	163	71.251349685726	15.097212460864
2	167	73.061826199739	16.852530574707
2	177	76.447512566904	17.492396972192
2	181	78.170010113551	9.0316342087
2	183	80.593499386978	10.34479322383
2	199	84.70289999472	14.360683532535
2	203	85.729898517386	9.992613851639
2	207	86.522080335323	10.183275225869
2	211	89.500034673882	11.456275406642
2	217	91.138670036103	10.425630842129
2	227	94.481610459824	13.289686849144
2	237	97.379125321807	15.559454038137
2	245	100.210771120513	17.492179929326
2	251	103.582258869615	19.115840317208
2	255	104.731294675803	19.361881408099
2	259	106.774050207612	20.424147767775
2	265	109.881799046278	18.613990137933
2	271	111.513437777066	20.160236146004
2	279	116.012223899222	22.576367222817
2	283	118.643958611178	23.06506237693
2	291	122.255838563054	26.155807063374
2	301	123.914968694508	26.736646673276
2	305	125.788822648462	26.815089783808
2	309	128.474354968555	25.23236654957
2	321	132.15000843052	27.81463639783
2	325	134.827186139614	27.287031955621
2	333	137.204805696076	26.37233214595
2	337	139.397428746287	27.952506615731
2	343	141.581059937385	25.625770045071
2	353	144.83749071045	27.006956724003
2	359	147.254828060902	26.7846100724
2	367	149.35020184419	27.090644749777
2	377	153.401664425997	30.12958856085
2	389	157.031749737981	33.195448887058
2	399	160.52739596614	31.185584310452
2	403	162.303995145334	32.262579666846
2	409	164.535998249478	34.109556810497
2	413	164.758035095346	33.916840287646
2	417	167.733993052873	32.652431980416
2	421	170.19218035964	33.835535433032
2	425	172.14667135817	31.714062509378
2	431	174.882673876761	33.921825969612
2	439	177.407092038132	35.630022929566
2	453	181.778432497366	39.649161736923
2	457	183.782399470328	41.158025745436
2	461	185.498470345828	38.791409192867
2	463	186.431045238076	37.771518642253
2	469	188.997448191102	39.816298182024
2	475	192.495306403866	41.735400933181
2	485	195.072593218518	44.25055354514
2	489	197.733357355611	41.443482041264
2	497	199.914511011142	43.488798077964
3	6	3.131323452819	0
3	12	6.826950756762	0
3	17	9.489771905441	0.58797430247
3	26	12.415158877014	0
3	36	15.494293232722	0
3	44	18.526601709887	0
3	49	21.609783665248	1.839429745207
3	53	23.764386488411	0.946419019932
3	57	27.052135570164	1.82077886376
3	65	29.030929301708	1.112158156184
3	73	31.583095083458	0.970382543698
3	84	33.570819115354	0
3	88	34.621603393483	0
3	93	37.494703550189	1.491057445127
3	97	40.348843396042	0.882084555998
3	101	43.089276583011	0.191551129277
3	112	47.494856965795	0
3	119	50.150046001287	1.833438226729
3	123	50.929500580444	0.300289392359
3	128	54.725051377941	0
3	138	58.326724879191	0
3	143	61.111453833819	0.969637572779
3	148	64.981807130345	0
3	151	67.628778144974	1.395398541311
3	157	69.450389907295	0.160364205087
3	165	72.020723173811	0.769373488085
3	169	73.448076962327	0.386250762588
3	178	76.447512566904	0
3	185	80.638751431929	2.468741318378
3	195	83.413948161209	2.820448774231
3	209	87.939968531363	3.237068536643
3	213	89.649619753086	3.9197212357
3	215	90.682986308259	4.160905972936
3	223	92.822833387549	3.322798713667
3	233	96.903369167005	5.764699130902
3	239	98.131424436916	3.649813977092
3	243	100.032452725301	2.653327403494
3	247	102.992409309573	2.78163818906
3	257	106.265969480158	2.683710610543
3	263	108.940703750581	4.209409074778
3	273	111.840266474952	5.06621626734
3	275	115.3733130116	5.491513965322
3	285	118.956954592371	7.443516815305
3	289	121.783897468031	5.771673568809
3	295	123.046677048957	4.402718437779
3	303	125.280645514323	3.024806951269
3	307	128.070811262607	4.155842568099
3	317	130.714358665734	4.925536017272
3	323	134.207913071761	5.733558103206
3	329	136.024423698643	3.874415268123
3	335	138.304266341564	3.47708020195
3	351	142.632956958315	5.428151262239
3	355	145.520040542775	6.122611796488
3	361	147.833948986902	6.252889049517
3	369	150.43078863455	5.5932979241
3	375	153.35669937357	6.101871312668
3	379	155.130200099709	5.779998255519
3	393	157.768656450893	4.366992024896
3	401	160.619436088755	3.587686350774
3	405	163.066901221441	2.539505255301
3	411	164.57050417761	2.266509032276
3	415	166.362874556473	1.826876306995
3	419	167.814874003331	3.056838907985
3	423	170.346141267435	2.612148214562
3	427	172.81907673972	2.62689638008
3	433	176.057321976449	3.910650618279
3	445	178.721083221783	3.838409345022
3	449	179.721668019972	2.31457598184
3	455	183.473455303641	1.695022806275
3	465	187.380507254824	3.598107784496
3	471	189.986172735193	4.487702389365
3	473	191.994911500353	5.563866262277
3	481	194.096391060135	5.098942869033
3	491	197.853333428123	5.358027024257
3	493	198.375901948594	3.303308730076
3	495	199.896087483328	2.162730127717
4	8	4.56711606702	4.56711606702
4	18	9.489771905441	8.344387926187
4	24	11.149414111411	4.640993611244
4	34	14.41378477466	6.814641240057
4	42	18.345519247277	8.345997839528
4	50	21.609783665248	10.989514326257
4	54	23.764386488411	11.140759037985
4	58	27.052135570164	14.139427571501
4	66	29.030929301708	14.737674006328
4	74	31.583095083458	15.848481865442
4	80	33.327362847235	16.994594569126
4	86	34.296691107932	14.115963967482
4	94	37.494703550189	10.325217849087
4	98	40.348843396042	11.362983841661
4	102	43.089276583011	13.601783208981
4	106	45.224600380894	15.239398989853
4	120	50.150046001287	18.442621283257
4	124	50.929500580444	18.771425937279
4	126	51.805602651813	18.382770560178
4	136	56.224488666141	20.756093210965
4	144	61.111453833819	16.254619043708
4	146	63.978701168472	17.447165449358
4	152	67.628778144974	20.498453174983
4	158	69.450389907295	21.204419269943
4	166	72.020723173811	22.513121006469
4	170	73.448076962327	17.793423465535
4	172	75.113632236168	18.959495011306
4	186	80.638751431929	24.429455806897
4	196	83.413948161209	24.458832566497
4	210	87.939968531363	18.801592626512
4	214	89.649619753086	19.400913589938
4	216	90.682986308259	20.340769846074
4	224	92.822833387549	17.085548721802
4	234	96.903369167005	20.564564057551
4	240	98.131424436916	20.087665169676
4	244	100.032452725301	19.319413531327
4	248	102.992409309573	21.800485698893
4	258	106.265969480158	24.446298196488
4	264	108.940703750581	26.222112559394
4	274	111.840266474952	27.373847922545
4	276	115.3733130116	30.003899743896
4	286	118.956954592371	32.607052152534
4	290	121.783897468031	30.516088559686
4	296	123.046677048957	31.693475417895
4	304	125.280645514323	31.844788837918
4	308	128.070811262607	32.491915028359
4	318	130.714358665734	34.614327166054
4	324	134.207913071761	37.029591050529
4	330	136.024423698643	37.050690833989
4	336	138.304266341564	35.062277922579
4	352	142.632956958315	38.297584925625
4	356	145.520040542775	37.979886358782
4	362	147.833948986902	37.001475436776
4	370	150.43078863455	38.985866503994
4	376	153.35669937357	37.401409481256
4	380	155.130200099709	37.299666113262
4	394	157.768656450893	37.298438462391
4	402	160.619436088755	38.359878994342
4	406	163.066901221441	39.794825356294
4	412	164.57050417761	40.734203326687
4	416	166.362874556473	37.021062900785
4	420	167.814874003331	37.773458524843
4	424	170.346141267435	39.919699828454
4	428	172.81907673972	41.97788193202
4	434	176.057321976449	40.975760903992
4	446	178.721083221783	42.364438295175
4	450	179.721668019972	39.28905917118
4	456	183.473455303641	42.512607396492
4	466	187.380507254824	45.603438146258
4	472	189.986172735193	47.85690197475
4	474	191.994911500353	49.370537775461
4	482	194.096391060135	47.389329907174
4	492	197.853333428123	49.1938068323
4	494	198.375901948594	49.194751939516
4	496	199.896087483328	49.136182012643

