version 3
run PureAlohaExperiment-12-20211207-20:09:43-303980
attr configname PureAlohaExperiment
attr datetime 20211207-20:09:43
attr datetimef 20211207-200943
attr experiment PureAlohaExperiment
attr inifile omnetpp.ini
attr iterationvars "$numHosts=10, $iaMean=9"
attr iterationvarsd numHosts=10/iaMean=9
attr iterationvarsf numHosts=10,iaMean=9-
attr measurement "$numHosts=10, $iaMean=9"
attr network Aloha
attr processid 303980
attr repetition 0
attr replication #0
attr resultdir results
attr runnumber 12
attr seedset 12
itervar iaMean 9
itervar numHosts 10
config cmdenv-redirect-output true
config description "Channel utilization in the function of packet generation frequency"
config repeat 2
config sim-time-limit 90min
config Aloha.numHosts 10
config Aloha.host[*].iaTime exponential(9s)
config network Aloha
config Aloha.numHosts 20
config Aloha.slotTime 0s
config Aloha.txRate 9.6kbps
config Aloha.host[*].pkLenBits 952b
config **.x "uniform(0m, 1000m)"
config **.y "uniform(0m, 1000m)"
config **.animationHoldTimeOnCollision 0s
config **.idleAnimationSpeed 1
config **.transmissionEdgeAnimationSpeed 1e-6
config **.midTransmissionAnimationSpeed 1e-1

vector 0 Aloha.server serverChannelState:vector(sum) ETV
attr enum IDLE=0,TRANSMISSION=1,COLLISION=2
attr recordingmode vector(sum)
attr source channelState
attr title "Channel state, sum"
vector 1 Aloha.server serverChannelState:vector(sum(mean+1)) ETV
attr enum IDLE=0,TRANSMISSION=1,COLLISION=2
attr recordingmode vector(sum(mean+1))
attr source channelState
attr title "Channel state, sum(mean+1)"
vector 2 Aloha.server serverChannelState:vector ETV
attr enum IDLE=0,TRANSMISSION=1,COLLISION=2
attr recordingmode vector
attr source channelState
attr title "Channel state"
vector 3 Aloha.host[0] radioState:vector ETV
attr enum IDLE=0,TRANSMIT=1
attr recordingmode vector
attr source state
attr title "Radio state"
vector 4 Aloha.host[1] radioState:vector ETV
attr enum IDLE=0,TRANSMIT=1
attr recordingmode vector
attr source state
attr title "Radio state"
vector 5 Aloha.host[2] radioState:vector ETV
attr enum IDLE=0,TRANSMIT=1
attr recordingmode vector
attr source state
attr title "Radio state"
vector 6 Aloha.host[3] radioState:vector ETV
attr enum IDLE=0,TRANSMIT=1
attr recordingmode vector
attr source state
attr title "Radio state"
vector 7 Aloha.host[4] radioState:vector ETV
attr enum IDLE=0,TRANSMIT=1
attr recordingmode vector
attr source state
attr title "Radio state"
vector 8 Aloha.host[5] radioState:vector ETV
attr enum IDLE=0,TRANSMIT=1
attr recordingmode vector
attr source state
attr title "Radio state"
vector 9 Aloha.host[6] radioState:vector ETV
attr enum IDLE=0,TRANSMIT=1
attr recordingmode vector
attr source state
attr title "Radio state"
vector 10 Aloha.host[7] radioState:vector ETV
attr enum IDLE=0,TRANSMIT=1
attr recordingmode vector
attr source state
attr title "Radio state"
vector 11 Aloha.host[8] radioState:vector ETV
attr enum IDLE=0,TRANSMIT=1
attr recordingmode vector
attr source state
attr title "Radio state"
vector 12 Aloha.host[9] radioState:vector ETV
attr enum IDLE=0,TRANSMIT=1
attr recordingmode vector
attr source state
attr title "Radio state"
0	0	0	0
0	0	0	0
0	2	0.020357433448	1
0	4	0.119524100115	1
0	6	1.441243663751	2
0	8	1.540410330418	2
0	10	1.89511823644	3
0	12	1.994284903107	3
0	14	5.911862195527	4
0	16	6.011028862194	4
0	18	6.628740238093	5
0	20	6.72790690476	5
0	22	7.346938580905	6
0	24	7.446105247572	6
0	26	7.973178341545	7
0	28	8.072345008212	7
0	30	8.384541971805	8
0	32	8.483708638472	8
0	34	9.64920827703	9
0	36	9.748374943697	9
0	38	13.963805413884	10
0	40	14.062972080551	10
0	42	16.388409303296	11
0	44	16.487575969963	11
0	46	16.676840333046	12
0	48	16.776006999713	12
0	50	17.239730253893	13
0	52	17.33889692056	13
0	54	18.64631591037	14
0	56	18.745482577037	14
0	58	19.882273714063	15
0	60	19.98144038073	15
0	62	21.093904400266	16
0	64	21.193071066933	16
0	66	21.516278052917	17
0	68	21.615444719584	17
0	70	21.929046215264	18
0	72	22.028212881931	18
0	74	22.765084751633	19
0	76	22.8642514183	19
0	78	22.942723192861	20
0	80	23.041889859528	20
0	82	23.468067966756	21
0	84	23.567234633423	21
0	86	24.95368202845	22
0	88	25.052848695117	22
0	90	25.977889279538	23
0	92	26.077055946205	23
0	94	27.091123682726	24
0	96	27.190290349393	24
0	98	29.279226123863	25
0	100	29.302046450973	27
0	103	29.40121311764	27
0	105	30.803718643688	28
0	107	30.902885310355	28
0	109	31.318071403407	29
0	111	31.417238070074	29
0	113	31.906883088595	30
0	115	32.006049755262	30
0	117	32.455569199567	31
0	119	32.554735866234	31
0	121	32.881920160038	32
0	123	32.952596309632	34
0	126	33.051762976299	34
0	128	34.170838733594	35
0	130	34.270005400261	35
0	132	35.918934630306	36
0	134	36.018101296973	36
0	136	36.123117624908	37
0	138	36.222284291575	37
0	140	36.361425417253	38
0	142	36.46059208392	38
0	144	36.552795102237	39
0	146	36.651961768904	39
0	148	37.020182086783	40
0	150	37.11934875345	40
0	152	37.936950557047	41
0	154	38.036117223714	41
0	156	38.669573518587	42
0	158	38.768740185254	42
0	160	40.476578173015	43
0	162	40.575744839682	43
0	164	41.320667419247	44
0	166	41.419834085914	44
0	168	42.586751887144	45
0	170	42.685918553811	45
0	172	42.791692328627	46
0	174	42.890858995294	46
0	176	42.920821497256	47
0	178	43.019988163923	47
0	180	44.555907904308	48
0	182	44.655074570975	48
0	184	45.469401252691	49
0	186	45.568567919358	49
0	188	47.717578626894	50
0	190	47.816745293561	50
0	192	49.584417422892	51
0	194	49.683584089559	51
0	196	49.987154574949	52
0	198	50.086321241616	52
0	200	50.970536766071	53
0	202	51.069703432738	53
0	204	51.156232491247	54
0	206	51.255399157914	54
0	208	53.704587882064	55
0	210	53.803754548731	55
0	212	54.290494036953	56
0	214	54.38966070362	56
0	216	55.563118021763	57
0	218	55.66228468843	57
0	220	56.25111293074	58
0	222	56.350279597407	58
0	224	57.204515574907	59
0	226	57.303682241574	59
0	228	58.373118114242	60
0	230	58.472284780909	60
0	232	59.614961700239	61
0	234	59.714128366906	61
0	236	62.194600582823	62
0	238	62.29376724949	62
0	240	64.107604680085	63
0	242	64.206771346752	63
0	244	64.67977642896	64
0	246	64.778943095627	64
0	248	64.96602531005	65
0	250	65.054319746122	67
0	253	65.153486412789	67
0	255	69.276856675643	68
0	257	69.37602334231	68
0	259	69.805081463486	69
0	261	69.904248130153	69
0	263	70.511990216586	70
0	265	70.596490549685	72
0	268	70.695657216352	72
0	270	70.933370949234	73
0	272	71.032537615901	73
0	274	71.824867305032	74
0	276	71.924033971699	74
0	278	72.182940344782	75
0	280	72.282107011449	75
0	282	74.681570754499	76
0	284	74.779190912236	78
0	287	74.878357578903	78
0	289	75.013971604367	79
0	291	75.113138271034	79
0	293	75.905795914176	80
0	295	76.004962580843	80
0	297	76.259704122999	81
0	299	76.358870789666	81
0	301	76.490313554746	82
0	303	76.589480221413	82
0	305	77.515707696718	83
0	307	77.614874363385	83
0	309	79.80174146241	84
0	311	79.900908129077	84
0	313	82.146902526	85
0	315	82.246069192667	85
0	317	82.884809984948	86
0	319	82.983976651615	86
0	321	83.493300207564	87
0	323	83.592466874231	87
0	325	83.978716408628	88
0	327	84.077883075295	88
0	329	84.150524797845	89
0	331	84.249691464512	89
0	333	85.236301540866	90
0	335	85.335468207533	90
0	337	86.088867159989	91
0	339	86.188033826656	91
0	341	86.760234696616	92
0	343	86.859401363283	92
0	345	87.30418181707	93
0	347	87.403348483737	93
0	349	87.851625640631	94
0	351	87.950792307298	94
0	353	89.815167935925	95
0	355	89.843342734187	97
0	358	89.914708138992	99
0	361	90.013874805659	99
0	363	90.094043842586	100
0	365	90.181855410061	102
0	368	90.281022076728	102
0	370	90.74467621646	103
0	372	90.843842883127	103
0	374	90.94010357389	104
0	376	91.039270240557	104
0	378	91.278510630214	105
0	380	91.377677296881	105
0	382	92.773666629408	106
0	384	92.872833296075	106
0	386	93.764416575538	107
0	388	93.863583242205	107
0	390	95.596991285651	108
0	392	95.696157952318	108
0	394	97.537838192153	109
0	396	97.63700485882	109
0	398	98.952784653637	110
0	400	99.006737377811	112
0	403	99.105904044478	112
0	405	99.972119730422	113
0	407	100.071286397089	113
0	409	100.539865176504	114
0	411	100.614588867933	116
0	414	100.7137555346	116
0	416	100.924666150879	117
0	418	101.023832817546	117
0	420	103.460320954626	118
0	422	103.559487621293	118
0	424	103.994119377462	119
0	426	104.093286044129	119
0	428	104.587107769179	120
0	430	104.675615721613	122
0	433	104.77478238828	122
0	435	104.804688157161	123
0	437	104.903854823828	123
0	439	105.471605690552	124
0	441	105.570772357219	124
0	443	106.875923796167	125
0	445	106.975090462834	125
0	447	107.076256918868	126
0	449	107.175423585535	126
0	451	107.43909842075	127
0	453	107.538265087417	127
0	455	109.401395455134	128
0	457	109.500562121801	128
0	459	110.055591246116	129
0	461	110.154757912783	129
0	463	111.456920344219	130
0	465	111.556087010886	130
0	467	111.604996243459	131
0	469	111.704162910126	131
0	471	112.415722161156	132
0	473	112.514888827823	132
0	475	112.6946613872	133
0	477	112.793828053867	133
0	479	112.898990219067	134
0	481	112.998156885734	134
0	483	113.201668921352	135
0	485	113.300835588019	135
0	487	114.764672691892	136
0	489	114.863839358559	136
0	491	115.040031691427	137
0	493	115.139198358094	137
0	495	115.148658588137	138
0	497	115.247825254804	138
0	499	117.009343559146	139
0	501	117.108510225813	139
0	503	118.355620874814	140
0	505	118.454787541481	140
0	507	120.354680395598	141
0	509	120.453847062265	141
0	511	120.617102461272	142
0	513	120.716269127939	142
0	515	120.90119061156	143
0	517	121.000357278227	143
0	519	121.136359301932	144
0	521	121.235525968599	144
0	523	124.60614310769	145
0	525	124.705309774357	145
0	527	125.097366816277	146
0	529	125.196533482944	146
0	531	126.914765010098	147
0	533	127.013931676765	147
0	535	127.110554736504	148
0	537	127.209721403171	148
0	539	127.584522430891	149
0	541	127.683689097558	149
0	543	128.445344405682	150
0	545	128.544511072349	150
0	547	128.573309557425	151
0	549	128.672476224092	151
0	551	130.505792104692	152
0	553	130.604958771359	152
0	555	130.662580400486	153
0	557	130.761747067153	153
0	559	133.656956815114	154
0	561	133.756123481781	154
0	563	135.056095597918	155
0	565	135.155262264585	155
0	567	136.312104527929	156
0	569	136.402336398256	158
0	572	136.501503064923	158
0	574	137.186529618899	159
0	576	137.261373974158	161
0	579	137.360540640825	161
0	581	137.591656650939	162
0	583	137.690823317606	162
0	585	138.033097385178	163
0	587	138.132264051845	163
0	589	138.571171296137	164
0	591	138.670337962804	164
0	593	139.299570692027	165
0	595	139.398737358694	165
0	597	139.875305037441	166
0	599	139.974471704108	166
0	601	140.386593098765	167
0	603	140.485759765432	167
0	605	142.175176502164	168
0	607	142.274343168831	168
0	609	142.947827761103	169
0	611	143.04699442777	169
0	613	143.357590498149	170
0	615	143.456757164816	170
0	617	144.823286389526	171
0	619	144.85631267104	173
0	622	144.955479337707	173
0	624	144.985119767001	174
0	626	145.084286433668	174
0	628	145.783315590005	175
0	630	145.872906271495	177
0	633	145.972072938162	177
0	635	146.805294067284	178
0	637	146.904460733951	178
0	639	151.776955780539	179
0	641	151.876122447206	179
0	643	152.314829283307	180
0	645	152.413995949974	180
0	647	152.467337937477	181
0	649	152.566504604144	181
0	651	153.966325619183	182
0	653	154.06549228585	182
0	655	155.791189419029	183
0	657	155.890356085696	183
0	659	156.019107519406	184
0	661	156.118274186073	184
0	663	156.47820773487	185
0	665	156.577374401537	185
0	667	159.790540253466	186
0	669	159.889706920133	186
0	671	160.496647072099	187
0	673	160.595813738766	187
0	675	161.45601674617	188
0	677	161.555183412837	188
0	679	163.33380612986	189
0	681	163.432972796527	189
0	683	165.857683192097	190
0	685	165.956849858764	190
0	687	166.097614345065	191
0	689	166.196781011732	191
0	691	166.336529483402	192
0	693	166.435696150069	192
0	695	166.615067508101	193
0	697	166.714234174768	193
0	699	167.307243973823	194
0	701	167.40641064049	194
0	703	167.469760682381	195
0	705	167.568927349048	195
0	707	168.041022486458	196
0	709	168.058324416272	198
0	712	168.157491082939	198
0	714	169.620829457594	199
0	716	169.719996124261	199
0	718	169.805109959928	200
0	720	169.904276626595	200
0	722	170.048303998732	201
0	724	170.147470665399	201
0	726	172.096050708233	202
0	728	172.1952173749	202
0	730	173.842202733714	203
0	732	173.941369400381	203
0	734	174.194902332718	204
0	736	174.294068999385	204
0	738	174.974915288522	205
0	740	175.074081955189	205
0	742	175.310099984793	206
0	744	175.40926665146	206
0	746	176.069795474807	207
0	748	176.168962141474	207
0	750	176.933730200257	208
0	752	177.032896866924	208
0	754	177.560438599668	209
0	756	177.659605266335	209
0	758	178.060419090801	210
0	760	178.155629248631	212
0	763	178.254795915298	212
0	765	178.369445472936	213
0	767	178.468612139603	213
0	769	179.339330664731	214
0	771	179.438497331398	214
0	773	179.995869865377	215
0	775	180.095036532044	215
0	777	180.287356943918	216
0	779	180.386523610585	216
0	781	180.809202572858	217
0	783	180.908369239525	217
0	785	181.485793342064	218
0	787	181.584960008731	218
0	789	181.681859862607	219
0	791	181.781026529274	219
0	793	182.658231557788	220
0	795	182.757398224455	220
0	797	184.325767731464	221
0	799	184.424934398131	221
0	801	186.191684160282	222
0	803	186.290850826949	222
0	805	186.41332524867	223
0	807	186.512491915337	223
0	809	188.035336346978	224
0	811	188.134503013645	224
0	813	188.181807208012	225
0	815	188.280973874679	225
0	817	188.514000669285	226
0	819	188.613167335952	226
0	821	188.771450146807	227
0	823	188.870616813474	227
0	825	189.444263581511	228
0	827	189.543430248178	228
0	829	189.782596770021	229
0	831	189.881763436688	229
0	833	190.528685315616	230
0	835	190.627851982283	230
0	837	191.536066663945	231
0	839	191.635233330612	231
0	841	191.789920376537	232
0	843	191.889087043204	232
0	845	191.89322200745	233
0	847	191.992388674117	233
0	849	193.31592920657	234
0	851	193.415095873237	234
0	853	194.179782052021	235
0	855	194.278948718688	235
0	857	194.458698125795	236
0	859	194.524040476429	238
0	862	194.623207143096	238
0	864	194.780723476982	239
0	866	194.879890143649	239
0	868	196.095953269159	240
0	870	196.132928494603	242
0	873	196.23209516127	242
0	875	196.45936378502	243
0	877	196.492107512101	245
0	880	196.591274178768	245
0	882	196.909604151169	246
0	884	197.008770817836	246
0	886	197.138931322309	247
0	888	197.238097988976	247
0	890	198.705039857607	248
0	892	198.804206524274	248
0	894	199.675232756767	249
0	896	199.774399423434	249
0	898	199.855765563508	250
0	900	199.954932230175	250
0	902	200.521579973213	251
0	904	200.62074663988	251
0	906	201.251904848867	252
0	908	201.351071515534	252
0	910	201.90879573151	253
0	912	202.007962398177	253
0	914	202.288569845801	254
0	916	202.387736512468	254
0	918	204.539450525992	255
0	920	204.592043551463	257
0	923	204.69121021813	257
0	925	205.207270820185	258
0	927	205.306437486852	258
0	929	205.960689524925	259
0	931	206.059856191592	259
0	933	206.102341712776	260
0	935	206.201508379443	260
0	937	206.273828253469	261
0	939	206.372994920136	261
0	941	206.541467294707	262
0	943	206.640633961374	262
0	945	206.735073360213	263
0	947	206.83424002688	263
0	949	207.065168374214	264
0	951	207.14291597163	266
0	954	207.242082638297	266
0	956	208.306597876026	267
0	958	208.331256307851	269
0	961	208.430422974518	269
0	963	209.201690573684	270
0	965	209.300857240351	270
0	967	209.443413751472	271
0	969	209.46982525591	273
0	972	209.568991922577	273
0	974	210.87677662864	274
0	976	210.975943295307	274
0	978	212.714669262662	275
0	980	212.813835929329	275
0	982	215.353955632183	276
0	984	215.38063238299	278
0	987	215.479799049657	278
0	989	215.778271620651	279
0	991	215.877438287318	279
0	993	216.893767690874	280
0	995	216.979215485247	282
0	998	217.078382151914	282
0	1000	218.012017428798	283
0	1002	218.111184095465	283
0	1004	218.578544035634	284
0	1006	218.668797448421	286
0	1009	218.767964115088	286
0	1011	219.558493655173	287
0	1013	219.65766032184	287
0	1015	221.259002199788	288
0	1017	221.358168866455	288
0	1019	221.539996855033	289
0	1021	221.6391635217	289
0	1023	224.746167106628	290
0	1025	224.845333773295	290
0	1027	227.435138080174	291
0	1029	227.534304746841	291
0	1031	227.946204123165	292
0	1033	228.045370789832	292
0	1035	229.422580405043	293
0	1037	229.52174707171	293
0	1039	229.890681054892	294
0	1041	229.989847721559	294
0	1043	231.427328160407	295
0	1045	231.526494827074	295
0	1047	231.911579202067	296
0	1049	232.010745868734	296
0	1051	232.724991388241	297
0	1053	232.824158054908	297
0	1055	233.095054353778	298
0	1057	233.194221020445	298
0	1059	235.621674215697	299
0	1061	235.720840882364	299
0	1063	237.383453553847	300
0	1065	237.43410519684	302
0	1068	237.533271863507	302
0	1070	237.537072765247	303
0	1072	237.636239431914	303
0	1074	238.771340151516	304
0	1076	238.870506818183	304
0	1078	238.937074588436	305
0	1080	239.036241255103	305
0	1082	239.13868616411	306
0	1084	239.237852830777	306
0	1086	240.722773775883	307
0	1088	240.82194044255	307
0	1090	241.299419588594	308
0	1092	241.398586255261	308
0	1094	241.618364608964	309
0	1096	241.717531275631	309
0	1098	242.046533343925	310
0	1100	242.145700010592	310
0	1102	242.197333487632	311
0	1104	242.296500154299	311
0	1106	242.88614276861	312
0	1108	242.985309435277	312
0	1110	242.995364920673	313
0	1112	243.09453158734	313
0	1114	244.009299765047	314
0	1116	244.108466431714	314
0	1118	244.48396491265	315
0	1120	244.583131579317	315
0	1122	245.959493526559	316
0	1124	246.058660193226	316
0	1126	246.897047934492	317
0	1128	246.996214601159	317
0	1130	247.991008403817	318
0	1132	248.090175070484	318
0	1134	248.267365293865	319
0	1136	248.366531960532	319
0	1138	248.36987086689	320
0	1140	248.469037533557	320
0	1142	249.990738045244	321
0	1144	250.089904711911	321
0	1146	250.210895123583	322
0	1148	250.31006179025	322
0	1150	253.079694107858	323
0	1152	253.178860774525	323
0	1154	255.555399350742	324
0	1156	255.654566017409	324
0	1158	256.324056457598	325
0	1160	256.423223124265	325
0	1162	257.036801079947	326
0	1164	257.135967746614	326
0	1166	258.817399193023	327
0	1168	258.91656585969	327
0	1170	260.86785239147	328
0	1172	260.967019058137	328
0	1174	261.380567766284	329
0	1176	261.479734432951	329
0	1178	263.693393624594	330
0	1180	263.792560291261	330
0	1182	263.826215705106	331
0	1184	263.925382371773	331
0	1186	264.137801300543	332
0	1188	264.23696796721	332
0	1190	264.720689808499	333
0	1192	264.819856475166	333
0	1194	265.037161148728	334
0	1196	265.136327815395	334
0	1198	266.237087330001	335
0	1200	266.336253996668	335
0	1202	267.368305042638	336
0	1204	267.467471709305	336
0	1206	269.955938531744	337
0	1208	270.055105198411	337
0	1210	270.722020537422	338
0	1212	270.821187204089	338
0	1214	270.916882608922	339
0	1216	271.016049275589	339
0	1218	271.222344838931	340
0	1220	271.321511505598	340
0	1222	271.919110063807	341
0	1224	272.018276730474	341
0	1226	272.405402641832	342
0	1228	272.504569308499	342
0	1230	273.106598035282	343
0	1232	273.205764701949	343
0	1234	274.194728879516	344
0	1236	274.293895546183	344
0	1238	275.123083867818	345
0	1240	275.222250534485	345
0	1242	275.795348599759	346
0	1244	275.894515266426	346
0	1246	276.471506928202	347
0	1248	276.570673594869	347
0	1250	276.702806368887	348
0	1252	276.801973035554	348
0	1254	276.841677303915	349
0	1256	276.884076997313	351
0	1259	276.98324366398	351
0	1261	277.771817902963	352
0	1263	277.87098456963	352
0	1265	279.05292782069	353
0	1267	279.152094487357	353
0	1269	282.585800484157	354
0	1271	282.684967150824	354
0	1273	284.302275693682	355
0	1275	284.401442360349	355
0	1277	284.433485340461	356
0	1279	284.508455662977	358
0	1282	284.607622329644	358
0	1284	285.85695597685	359
0	1286	285.956122643517	359
0	1288	286.421482880854	360
0	1290	286.520649547521	360
0	1292	287.94482949642	361
0	1294	288.043996163087	361
0	1296	288.941110367174	362
0	1298	289.040277033841	362
0	1300	289.099017860481	363
0	1302	289.18360548244	365
0	1305	289.282772149107	365
0	1307	289.669668923441	366
0	1309	289.768835590108	366
0	1311	289.772692199324	367
0	1313	289.871858865991	367
0	1315	290.347529320534	368
0	1317	290.446695987201	368
0	1319	291.035935402545	369
0	1321	291.135102069212	369
0	1323	291.454086029924	370
0	1325	291.553252696591	370
0	1327	303.191338484605	371
0	1329	303.290505151272	371
0	1331	304.149134442009	372
0	1333	304.248301108676	372
0	1335	304.855648545936	373
0	1337	304.954815212603	373
0	1339	307.187910047842	374
0	1341	307.287076714509	374
0	1343	307.321265872144	375
0	1345	307.420432538811	375
0	1347	307.887692553468	376
0	1349	307.986859220135	376
0	1351	308.163579036087	377
0	1353	308.262745702754	377
0	1355	308.895480774113	378
0	1357	308.99464744078	378
0	1359	311.131243172461	379
0	1361	311.230409839128	379
0	1363	311.383607551332	380
0	1365	311.482774217999	380
0	1367	312.18141821847	381
0	1369	312.226409197418	383
0	1372	312.325575864085	383
0	1374	312.753315502358	384
0	1376	312.775739978865	386
0	1379	312.874906645532	386
0	1381	313.024817831071	387
0	1383	313.123984497738	387
0	1385	313.975737185775	388
0	1387	314.074903852442	388
0	1389	315.033302170323	389
0	1391	315.13246883699	389
0	1393	316.88043840411	390
0	1395	316.979605070777	390
0	1397	317.939269587492	391
0	1399	318.038436254159	391
0	1401	320.228398203941	392
0	1403	320.23029639234	394
0	1406	320.329463059007	394
0	1408	322.042635523839	395
0	1410	322.141802190506	395
0	1412	322.142932800439	396
0	1414	322.242099467106	396
0	1416	323.6098346471	397
0	1418	323.709001313767	397
0	1420	324.95906773968	398
0	1422	325.058234406347	398
0	1424	325.299976818194	399
0	1426	325.390528227255	401
0	1429	325.489694893922	401
0	1431	328.956233060404	402
0	1433	329.055399727071	402
0	1435	329.109772334875	403
0	1437	329.208939001542	403
0	1439	329.854677402015	404
0	1441	329.953844068682	404
0	1443	333.366895288523	405
0	1445	333.46606195519	405
0	1447	333.834763845954	406
0	1449	333.933930512621	406
0	1451	335.438782436142	407
0	1453	335.537949102809	407
0	1455	339.058587377618	408
0	1457	339.157754044285	408
0	1459	340.503647646557	409
0	1461	340.531483838614	411
0	1464	340.630650505281	411
0	1466	340.870398817864	412
0	1468	340.969565484531	412
0	1470	341.769983285114	413
0	1472	341.869149951781	413
0	1474	341.93451139631	414
0	1476	341.991939904081	416
0	1479	342.091106570748	416
0	1481	343.981526791762	417
0	1483	344.080693458429	417
0	1485	345.092861112576	418
0	1487	345.192027779243	418
0	1489	346.12205904003	419
0	1491	346.132322936393	421
0	1494	346.23148960306	421
0	1496	347.160286587559	422
0	1498	347.259453254226	422
0	1500	348.156672880811	423
0	1502	348.255839547478	423
0	1504	348.82340557372	424
0	1506	348.922572240387	424
0	1508	349.974297209344	425
0	1510	350.012253268145	427
0	1513	350.111419934812	427
0	1515	350.718914756125	428
0	1517	350.777644788801	430
0	1520	350.876811455468	430
0	1522	352.872958234098	431
0	1524	352.972124900765	431
0	1526	353.10144613905	432
0	1528	353.200612805717	432
0	1530	353.388501460492	433
0	1532	353.487668127159	433
0	1534	354.218641066166	434
0	1536	354.317807732833	434
0	1538	354.628943950829	435
0	1540	354.728110617496	435
0	1542	354.762016677589	436
0	1544	354.861183344256	436
0	1546	355.352881345013	437
0	1548	355.45204801168	437
0	1550	356.232368027491	438
0	1552	356.331534694158	438
0	1554	358.646194063228	439
0	1556	358.745360729895	439
0	1558	358.862546775802	440
0	1560	358.961713442469	440
0	1562	361.377471199746	441
0	1564	361.476637866413	441
0	1566	362.641056022297	442
0	1568	362.740222688964	442
0	1570	364.67834063125	443
0	1572	364.777507297917	443
0	1574	366.646692268977	444
0	1576	366.745858935644	444
0	1578	366.877486555264	445
0	1580	366.976653221931	445
0	1582	367.550057505176	446
0	1584	367.649224171843	446
0	1586	368.308931413333	447
0	1588	368.40809808	447
0	1590	369.825568937882	448
0	1592	369.886488477638	450
0	1595	369.985655144305	450
0	1597	371.529684125718	451
0	1599	371.628850792385	451
0	1601	371.914558177696	452
0	1603	372.013724844363	452
0	1605	372.358929813523	453
0	1607	372.45809648019	453
0	1609	373.550256092801	454
0	1611	373.649422759468	454
0	1613	373.782807767122	455
0	1615	373.881974433789	455
0	1617	374.883814596132	456
0	1619	374.982981262799	456
0	1621	376.360529049317	457
0	1623	376.459695715984	457
0	1625	376.986202854211	458
0	1627	377.085369520878	458
0	1629	377.591186320977	459
0	1631	377.690352987644	459
0	1633	378.18910817955	460
0	1635	378.212234640154	462
0	1638	378.311401306821	462
0	1640	379.112767540765	463
0	1642	379.211934207432	463
0	1644	379.26811695836	464
0	1646	379.367283625027	464
0	1648	382.0682313376	465
0	1650	382.167398004267	465
0	1652	382.550991341408	466
0	1654	382.650158008075	466
0	1656	383.952970810616	467
0	1658	384.052137477283	467
0	1660	384.078029986542	468
0	1662	384.177196653209	468
0	1664	385.180271291499	469
0	1666	385.279437958166	469
0	1668	385.746620401445	470
0	1670	385.845787068112	470
0	1672	386.514123895765	471
0	1674	386.613290562432	471
0	1676	390.446613563098	472
0	1678	390.545780229765	472
0	1680	390.683918079953	473
0	1682	390.78308474662	473
0	1684	391.014139937509	474
0	1686	391.113306604176	474
0	1688	392.261914211187	475
0	1690	392.361080877854	475
0	1692	392.670849997557	476
0	1694	392.770016664224	476
0	1696	393.385188326296	477
0	1698	393.484354992963	477
0	1700	393.685291990589	478
0	1702	393.753031906764	480
0	1705	393.852198573431	480
0	1707	393.884829527978	481
0	1709	393.983996194645	481
0	1711	394.406162275313	482
0	1713	394.50532894198	482
0	1715	394.511165263836	483
0	1717	394.610331930503	483
0	1719	395.546547600184	484
0	1721	395.645714266851	484
0	1723	396.3388199759	485
0	1725	396.437986642567	485
0	1727	396.920670885026	486
0	1729	396.927003379785	488
0	1732	397.026170046452	488
0	1734	398.272133607873	489
0	1736	398.37130027454	489
0	1738	399.1652531251	490
0	1740	399.264419791767	490
0	1742	400.756635735222	491
0	1744	400.855802401889	491
0	1746	401.061057640411	492
0	1748	401.160224307078	492
0	1750	402.129541596839	493
0	1752	402.228708263506	493
0	1754	402.525318429704	494
0	1756	402.624485096371	494
0	1758	403.522304071395	495
0	1760	403.621470738062	495
0	1762	406.298009380313	496
0	1764	406.39717604698	496
0	1766	407.273732989714	497
0	1768	407.372899656381	497
0	1770	408.091373092648	498
0	1772	408.098107461508	500
0	1775	408.197274128175	500
0	1777	408.355793083429	501
0	1779	408.385621337057	503
0	1782	408.484788003724	503
0	1784	410.051038527365	504
0	1786	410.150205194032	504
0	1788	410.160056068475	505
0	1790	410.259222735142	505
0	1792	410.505550355849	506
0	1794	410.604717022516	506
0	1796	411.334583682109	507
0	1798	411.433750348776	507
0	1800	411.439521124242	508
0	1802	411.538687790909	508
0	1804	411.945534942941	509
0	1806	412.044701609608	509
0	1808	412.885010036959	510
0	1810	412.984176703626	510
0	1812	412.987312131766	511
0	1814	413.086478798433	511
0	1816	414.354276443615	512
0	1818	414.453443110282	512
0	1820	415.076436604784	513
0	1822	415.175603271451	513
0	1824	415.264928678866	514
0	1826	415.364095345533	514
0	1828	415.436351168076	515
0	1830	415.535517834743	515
0	1832	415.67386455278	516
0	1834	415.773031219447	516
0	1836	416.965965015232	517
0	1838	417.065131681899	517
0	1840	417.387289187616	518
0	1842	417.486455854283	518
0	1844	417.66675366262	519
0	1846	417.765920329287	519
0	1848	418.749488634157	520
0	1850	418.848655300824	520
0	1852	421.690845858918	521
0	1854	421.790012525585	521
0	1856	422.709571062858	522
0	1858	422.808737729525	522
0	1860	422.980304581583	523
0	1862	423.07947124825	523
0	1864	423.353778960918	524
0	1866	423.452945627585	524
0	1868	424.044912347466	525
0	1870	424.144079014133	525
0	1872	426.320020318821	526
0	1874	426.419186985488	526
0	1876	426.769916543215	527
0	1878	426.793907779288	529
0	1881	426.893074445955	529
0	1883	426.977887299958	530
0	1885	427.021630784848	532
0	1888	427.120797451515	532
0	1890	429.335429816774	533
0	1892	429.434596483441	533
0	1894	429.910776198362	534
0	1896	429.951422972239	536
0	1899	430.050589638906	536
0	1901	430.271057642855	537
0	1903	430.370224309522	537
0	1905	430.888088302419	538
0	1907	430.987254969086	538
0	1909	431.147996728347	539
0	1911	431.247163395014	539
0	1913	431.419066792247	540
0	1915	431.437641324792	542
0	1918	431.536807991459	542
0	1920	431.750488828716	543
0	1922	431.849655495383	543
0	1924	432.46708722391	544
0	1926	432.566253890577	544
0	1928	432.699587121932	545
0	1930	432.798753788599	545
0	1932	433.970138412838	546
0	1934	434.069305079505	546
0	1936	434.438799001193	547
0	1938	434.53796566786	547
0	1940	434.88608325083	548
0	1942	434.985249917497	548
0	1944	435.317679802047	549
0	1946	435.416846468714	549
0	1948	436.171468530378	550
0	1950	436.270635197045	550
0	1952	436.932734530434	551
0	1954	437.031901197101	551
0	1956	437.271940320523	552
0	1958	437.37110698719	552
0	1960	437.65561213952	553
0	1962	437.754778806187	553
0	1964	437.847154618913	554
0	1966	437.94632128558	554
0	1968	438.708259031886	555
0	1970	438.715907515399	557
0	1973	438.815074182066	557
0	1975	439.181958994096	558
0	1977	439.281125660763	558
0	1979	441.26787128594	559
0	1981	441.367037952607	559
0	1983	442.752112520641	560
0	1985	442.851279187308	560
0	1987	443.408917772095	561
0	1989	443.508084438762	561
0	1991	446.693696215954	562
0	1993	446.792862882621	562
0	1995	448.318740223476	563
0	1997	448.417906890143	563
0	1999	448.445334779308	564
0	2001	448.491013899384	566
0	2004	448.590180566051	566
0	2006	450.259481775843	567
0	2008	450.35864844251	567
0	2010	450.994087806949	568
0	2012	451.093254473616	568
0	2014	451.656470406299	569
0	2016	451.755637072966	569
0	2018	452.74578244918	570
0	2020	452.844949115847	570
0	2022	454.585276590824	571
0	2024	454.684443257491	571
0	2026	456.534326037896	572
0	2028	456.633492704563	572
0	2030	456.673320202743	573
0	2032	456.77248686941	573
0	2034	458.084520505537	574
0	2036	458.110771980603	576
0	2039	458.20993864727	576
0	2041	459.7563853326	577
0	2043	459.855551999267	577
0	2045	463.000162847475	578