version 2
run PureAlohaExperiment-4-20170627-20:42:20-22739
attr configname PureAlohaExperiment
attr datetime 20170627-20:42:20
attr experiment PureAlohaExperiment
attr inifile omnetpp.ini
attr iterationvars "numHosts=10, iaMean=3"
attr iterationvarsf numHosts=10,iaMean=3-
attr measurement "numHosts=10, iaMean=3"
attr network Aloha
attr processid 22739
attr repetition 0
attr replication #0
attr resultdir results
attr runnumber 4
attr seedset 4
itervar iaMean 3
itervar numHosts 10
param Aloha.numHosts 10
param Aloha.host[*].iaTime exponential(3s)
param Aloha.numHosts 20
param Aloha.slotTime 0
param Aloha.txRate 9.6kbps
param Aloha.host[*].pkLenBits 952b
param **.x "uniform(0m, 1000m)"
param **.y "uniform(0m, 1000m)"
param **.animationHoldTimeOnCollision 0s
param **.idleAnimationSpeed 1
param **.transmissionEdgeAnimationSpeed 1e-6
param **.midTransmissionAnimationSpeed 1e-1

vector 0 Aloha.server serverChannelState:vector ETV
attr enum IDLE=0,TRANSMISSION=1,COLLISION=2
attr source channelState
attr title "Channel state, vector"
vector 1 Aloha.host[0] radioState:vector ETV
attr enum IDLE=0,TRANSMIT=1
attr source state
attr title "Radio state, vector"
vector 2 Aloha.host[1] radioState:vector ETV
attr enum IDLE=0,TRANSMIT=1
attr source state
attr title "Radio state, vector"
vector 3 Aloha.host[2] radioState:vector ETV
attr enum IDLE=0,TRANSMIT=1
attr source state
attr title "Radio state, vector"
vector 4 Aloha.host[3] radioState:vector ETV
attr enum IDLE=0,TRANSMIT=1
attr source state
attr title "Radio state, vector"
vector 5 Aloha.host[4] radioState:vector ETV
attr enum IDLE=0,TRANSMIT=1
attr source state
attr title "Radio state, vector"
vector 6 Aloha.host[5] radioState:vector ETV
attr enum IDLE=0,TRANSMIT=1
attr source state
attr title "Radio state, vector"
vector 7 Aloha.host[6] radioState:vector ETV
attr enum IDLE=0,TRANSMIT=1
attr source state
attr title "Radio state, vector"
vector 8 Aloha.host[7] radioState:vector ETV
attr enum IDLE=0,TRANSMIT=1
attr source state
attr title "Radio state, vector"
vector 9 Aloha.host[8] radioState:vector ETV
attr enum IDLE=0,TRANSMIT=1
attr source state
attr title "Radio state, vector"
vector 10 Aloha.host[9] radioState:vector ETV
attr enum IDLE=0,TRANSMIT=1
attr source state
attr title "Radio state, vector"
0	0	0	0
0	2	0.536817215565	1
0	4	0.635983882232	0
0	6	0.660765011613	1
0	8	0.663064021128	2
0	11	0.762230687795	0
0	13	1.345884973032	1
0	15	1.445051639699	0
0	17	1.491590153599	1
0	19	1.590756820266	0
0	21	1.726251220357	1
0	23	1.825417887024	0
0	25	2.228304320047	1
0	27	2.327470986714	0
0	29	2.374727459555	1
0	31	2.473894126222	0
0	33	2.548396217117	1
0	35	2.647562883784	0
0	37	2.728945095206	1
0	39	2.780025148148	2
0	42	2.879191814815	0
0	44	2.885735882048	1
0	46	2.984902548715	0
0	48	3.106682242167	1
0	50	3.205848908834	0
0	52	3.604246180655	1
0	54	3.703412847322	0
0	56	4.366446113414	1
0	58	4.465612780081	0
0	60	4.923169117529	1
0	62	5.013109342081	2
0	65	5.112276008748	0
0	67	5.682727895142	1
0	69	5.781894561809	0
0	71	5.963176215554	1
0	73	6.062342882221	0
0	75	6.296060765609	1
0	77	6.395227432276	0
0	79	6.599131140553	1
0	81	6.69829780722	0
0	83	6.795999134878	1
0	85	6.895165801545	0
0	87	7.472904866247	1
0	89	7.475414878954	2
0	91	7.528583045901	2
0	95	7.627749712568	0
0	97	7.835479269097	1
0	99	7.934645935764	0
0	101	8.123739750226	1
0	103	8.222906416893	0
0	105	9.452745633804	1
0	107	9.551912300471	0
0	109	9.797902466894	1
0	111	9.897069133561	0
0	113	10.501843019913	1
0	115	10.60100968658	0
0	117	11.593544139723	1
0	119	11.69271080639	0
0	121	11.743022019331	1
0	123	11.805646165242	2
0	126	11.904812831909	0
0	128	12.148818562203	1
0	130	12.24798522887	0
0	132	12.295183009034	1
0	134	12.394349675701	0
0	136	12.404888852135	1
0	138	12.504055518802	0
0	140	12.61329504002	1
0	142	12.712461706687	0
0	144	12.737867588714	1
0	146	12.837034255381	0
0	148	13.155243958251	1
0	150	13.229183595512	2
0	153	13.328350262179	0
0	155	13.499282807487	1
0	157	13.598449474154	0
0	159	13.60170424287	1
0	161	13.616311651432	2
0	164	13.715478318099	0
0	166	14.040003738476	1
0	168	14.11733990867	2
0	171	14.216506575337	0
0	173	14.298861205164	1
0	175	14.398027871831	0
0	177	15.22544096982	1
0	179	15.27907226464	2
0	182	15.378238931307	0
0	184	15.618120681927	1
0	186	15.717287348594	0
0	188	15.756469992729	1
0	190	15.828009578391	2
0	193	15.927176245058	0
0	195	16.728753029416	1
0	197	16.760583274431	2
0	199	16.790018822608	2
0	203	16.889185489275	0
0	205	17.234304141794	1
0	207	17.252289142865	2
0	209	17.328846423555	2
0	212	17.337301054393	2
0	216	17.43646772106	0
0	218	17.584990046787	1
0	220	17.684156713454	0
0	222	17.925071976557	1
0	224	18.024238643224	0
0	226	18.472404016661	1
0	228	18.571570683328	0
0	230	18.736551254494	1
0	232	18.835717921161	0
0	234	18.840788938437	1
0	236	18.860071437185	2
0	238	18.861005439865	2
0	242	18.960172106532	0
0	244	19.219734774885	1
0	246	19.318901441552	0
0	248	19.778835251231	1
0	250	19.817756658972	2
0	253	19.916166558743	2
0	256	19.932583611731	2
0	258	20.013915019771	2
0	262	20.062621203043	2
0	265	20.16178786971	0
0	267	20.168802169616	1
0	269	20.193608729466	2
0	272	20.292775396133	0
0	274	20.969905321431	1
0	276	21.069071988098	0
0	278	21.235119130094	1
0	280	21.334285796761	0
0	282	21.387468624882	1
0	284	21.465349099964	2
0	287	21.564515766631	0
0	289	21.706596935456	1
0	291	21.738934120816	2
0	293	21.800692213135	2
0	297	21.899858879802	0
0	299	22.053037733898	1
0	301	22.152204400565	0
0	303	22.410076374484	1
0	305	22.509243041151	0
0	307	22.819936527911	1
0	309	22.919103194578	0
0	311	23.31263357559	1
0	313	23.411800242257	0
0	315	23.552870667893	1
0	317	23.65203733456	0
0	319	24.057063549999	1
0	321	24.156230216666	0
0	323	24.205205019681	1
0	325	24.304371686348	0
0	327	25.289291628605	1
0	329	25.309255881618	2
0	332	25.408422548285	0
0	334	25.773783634861	1
0	336	25.872950301528	0
0	338	26.73033070666	1
0	340	26.791071198356	2
0	343	26.890237865023	0
0	345	27.429650770583	1
0	347	27.52881743725	0
0	349	27.898002003622	1
0	351	27.984208476543	2
0	354	28.08337514321	0
0	356	28.096934158084	1
0	358	28.196100824751	0
0	360	28.730991972226	1
0	362	28.830158638893	0
0	364	28.945649533025	1
0	366	29.044816199692	0
0	368	29.417013431974	1
0	370	29.516180098641	0
0	372	29.921048186041	1
0	374	30.020214852708	0
0	376	30.544037771781	1
0	378	30.643204438448	0
0	380	30.968787622139	1
0	382	31.067954288806	0
0	384	31.333338667118	1
0	386	31.432505333785	0
0	388	31.682582465593	1
0	390	31.78174913226	0
0	392	32.439614623305	1
0	394	32.538781289972	0
0	396	32.675807011324	1
0	398	32.736920987889	2
0	401	32.796639284509	2
0	404	32.895805951176	0
0	406	33.117926037215	1
0	408	33.136205342377	2
0	411	33.235372009044	0
0	413	33.619889632023	1
0	415	33.709886500744	2
0	418	33.797690395784	2
0	421	33.877775753375	2
0	424	33.9526095225	2
0	426	33.96473992843	2
0	430	34.063906595097	0
0	432	34.214206967413	1
0	434	34.251001401196	2
0	436	34.265750417557	2
0	440	34.364917084224	0
0	442	34.510190607534	1
0	444	34.609357274201	0
0	446	34.898250966792	1
0	448	34.964969047598	2
0	451	35.024340586965	2
0	454	35.123507253632	0
0	456	35.978227261783	1
0	458	36.07739392845	0
0	460	36.680241882352	1
0	462	36.752660702752	2
0	465	36.851827369419	0
0	467	36.852761333077	1
0	469	36.951927999744	0
0	471	37.017495409437	1
0	473	37.116662076104	0
0	475	37.265916494577	1
0	477	37.365083161244	0
0	479	37.43341523455	1
0	481	37.532581901217	0
0	483	37.685953015898	1
0	485	37.785119682565	0
0	487	37.881570331687	1
0	489	37.924267051738	2
0	492	38.023433718405	0
0	494	38.150171701402	1
0	496	38.249338368069	0
0	498	38.654508777445	1
0	500	38.753675444112	0
0	502	38.885350377875	1
0	504	38.984517044542	0
0	506	39.57120865924	1
0	508	39.670375325907	0
0	510	39.986810253817	1
0	512	40.084492509704	2
0	515	40.183659176371	0
0	517	40.418016202678	1
0	519	40.517182869345	0
0	521	41.231753943602	1
0	523	41.330920610269	0
0	525	41.436996600129	1
0	527	41.527900627725	2
0	530	41.627067294392	0
0	532	42.523937933605	1
0	534	42.623104600272	0
0	536	42.957943049429	1
0	538	43.057109716096	0
0	540	43.395387889651	1
0	542	43.494554556318	0
0	544	44.132059499079	1
0	546	44.231226165746	0
0	548	44.764646257298	1
0	550	44.863812923965	0
0	552	45.137174114591	1
0	554	45.236340781258	0
0	556	45.519633963168	1
0	558	45.618800629835	0
0	560	45.654045175422	1
0	562	45.753211842089	0
0	564	45.966835146028	1
0	566	46.044498857526	2
0	569	46.101867277771	2
0	572	46.201033944438	0
0	574	46.210359410199	1
0	576	46.309526076866	0
0	578	46.520638110832	1
0	580	46.619804777499	0
0	582	46.704516877157	1
0	584	46.803683543824	0
0	586	46.895410855226	1
0	588	46.994577521893	0
0	590	47.301947364843	1
0	592	47.40111403151	0
0	594	47.426282390981	1
0	596	47.525449057648	0
0	598	47.623134465119	1
0	600	47.722301131786	0
0	602	47.723425840339	1
0	604	47.822592507006	0
0	606	47.913470187617	1
0	608	48.012636854284	0
0	610	48.162000640929	1
0	612	48.261167307596	0
0	614	48.882005893731	1
0	616	48.981172560398	0
0	618	49.319190642026	1
0	620	49.418357308693	0
0	622	49.444958303382	1
0	624	49.544124970049	0
0	626	50.935503516483	1
0	628	51.03467018315	0
0	630	51.140539171355	1
0	632	51.155483284698	2
0	635	51.254649951365	0
0	637	51.334985355472	1
0	639	51.346032318218	2
0	642	51.445198984885	0
0	644	51.681469738522	1
0	646	51.780636405189	0
0	648	51.792227232587	1
0	650	51.891393899254	0
0	652	51.941726269853	1
0	654	52.005722880651	2
0	657	52.104889547318	0
0	659	52.225745467485	1
0	661	52.324912134152	0
0	663	52.333704793242	1
0	665	52.432871459909	0
0	667	52.539000038435	1
0	669	52.638166705102	0
0	671	52.685076665856	1
0	673	52.784243332523	0
0	675	52.850145162139	1
0	677	52.949311828806	0
0	679	53.044789159586	1
0	681	53.074388325098	2
0	684	53.173554991765	0
0	686	54.012392421318	1
0	688	54.111559087985	0
0	690	54.521972432513	1
0	692	54.62113909918	0
0	694	55.268927193024	1
0	696	55.363931720785	2
0	699	55.463098387452	0
0	701	57.105461260465	1
0	703	57.204627927132	0
0	705	57.472393011743	1
0	707	57.517562831788	2
0	710	57.583345490446	2
0	713	57.682512157113	0
0	715	57.697286761926	1
0	717	57.796453428593	0
0	719	57.798783659956	1
0	721	57.897950326623	0
0	723	58.369534396924	1
0	725	58.468701063591	0
0	727	58.485236619718	1
0	729	58.584403286385	0
0	731	58.750109569074	1
0	733	58.849276235741	0
0	735	58.865918700526	1
0	737	58.872699222388	2
0	739	58.919831450406	2
0	743	59.018998117073	0
0	745	59.544039468657	1
0	747	59.643206135324	0
0	749	59.692357879668	1
0	751	59.791524546335	0
0	753	60.614588137671	1
0	755	60.635325875514	2
0	758	60.734492542181	0
0	760	61.21913001397	1
0	762	61.249585356683	2
0	765	61.34875202335	0
0	767	61.632151315073	1
0	769	61.73131798174	0
0	771	61.890978527384	1
0	773	61.990145194051	0
0	775	62.642019979622	1
0	777	62.741186646289	0
0	779	63.124750176423	1
0	781	63.162763197926	2
0	784	63.242893287718	2
0	787	63.342059954385	0
0	789	63.373504185924	1
0	791	63.472670852591	0
0	793	63.717674353802	1
0	795	63.783943280083	2
0	798	63.88310994675	0
0	800	64.600533651494	1
0	802	64.620399350517	2
0	805	64.719566017184	0
0	807	64.812374663531	1
0	809	64.911541330198	0
0	811	65.176010787962	1
0	813	65.275177454629	0
0	815	65.397928206609	1
0	817	65.497094873276	0
0	819	65.696887499264	1
0	821	65.796054165931	0
0	823	65.84435473976	1
0	825	65.943521406427	0
0	827	67.276824940756	1
0	829	67.375991607423	0
0	831	67.58093487646	1
0	833	67.66558866909	2
0	836	67.764755335757	0
0	838	67.868149623375	1
0	840	67.967316290042	0
0	842	68.571441427857	1
0	844	68.670608094524	0
0	846	68.753908561021	1
0	848	68.785546885834	2
0	851	68.884713552501	0
0	853	68.903652163839	1
0	855	69.002818830506	0
0	857	69.350137200651	1
0	859	69.449303867318	0
0	861	69.727113657138	1
0	863	69.826280323805	0
0	865	70.303711739654	1
0	867	70.402878406321	0
0	869	71.181238856579	1
0	871	71.280405523246	0
0	873	71.573447139321	1
0	875	71.672613805988	0
0	877	71.884924395901	1
0	879	71.929219548037	2
0	882	72.028386214704	0
0	884	72.149524845017	1
0	886	72.248691511684	0
0	888	72.418286355913	1
0	890	72.51745302258	0
0	892	72.626919962383	1
0	894	72.72608662905	0
0	896	72.744166475036	1
0	898	72.843333141703	0
0	900	72.862365204507	1
0	902	72.961531871174	0
0	904	74.142534795482	1
0	906	74.16448704232	2
0	909	74.263653708987	0
0	911	74.555543048063	1
0	913	74.65470971473	0
0	915	74.992099518687	1
0	917	75.009330131725	2
0	920	75.108496798392	0
0	922	75.586369980287	1
0	924	75.685536646954	0
0	926	75.746124087201	1
0	928	75.806389317482	2
0	930	75.812936005608	2
0	934	75.912102672275	0
0	936	76.127684081918	1
0	938	76.226850748585	0
0	940	76.426285853291	1
0	942	76.525452519958	0
0	944	77.416120117764	1
0	946	77.48660133749	2
0	949	77.585768004157	0
0	951	77.651218897423	1
0	953	77.75038556409	0
0	955	77.764746922679	1
0	957	77.836995783158	2
0	960	77.936162449825	0
0	962	79.690883017057	1
0	964	79.768591178328	2
0	967	79.867757844995	0
0	969	80.475437813837	1
0	971	80.574604480504	0
0	973	80.995785124468	1
0	975	81.094951791135	0
0	977	81.173489269323	1
0	979	81.222291187577	2
0	982	81.321457854244	0
0	984	81.544567629378	1
0	986	81.643734296045	0
0	988	81.687658682971	1
0	990	81.786825349638	0
0	992	82.198443247143	1
0	994	82.29760991381	0
0	996	82.302665950388	1
0	998	82.401832617055	0
0	1000	82.853477198933	1
0	1002	82.9526438656	0
0	1004	83.182160998139	1
0	1006	83.281327664806	0
0	1008	83.332910368872	1
0	1010	83.432077035539	0
0	1012	83.866296459829	1
0	1014	83.965463126496	0
0	1016	84.06588802845	1
0	1018	84.165054695117	0
0	1020	84.286428934924	1
0	1022	84.385595601591	0
0	1024	84.421932738911	1
0	1026	84.521099405578	0
0	1028	85.244512877098	1
0	1030	85.343679543765	0
0	1032	85.367909259876	1
0	1034	85.389088946818	2
0	1037	85.488255613485	0
0	1039	85.725736895929	1
0	1041	85.745965175662	2
0	1044	85.845131842329	0
0	1046	85.961323757156	1
0	1048	86.060490423823	0
0	1050	86.260610642061	1
0	1052	86.359777308728	0
0	1054	86.718805801153	1
0	1056	86.81797246782	0
0	1058	88.170972066601	1
0	1060	88.206791858111	2
0	1063	88.305958524778	0
0	1065	89.050717379482	1
0	1067	89.149884046149	0
0	1069	89.552170423991	1
0	1071	89.651337090658	0
0	1073	89.904453382256	1
0	1075	90.003620048923	0
0	1077	90.251863945237	1
0	1079	90.306416066184	2
0	1081	90.314357098876	2
0	1085	90.413523765543	0
0	1087	90.696111845351	1
0	1089	90.795278512018	0
0	1091	91.008457781263	1
0	1093	91.10762444793	0
0	1095	91.1305201331	1
0	1097	91.229686799767	0
0	1099	91.415216700092	1
0	1101	91.425826564165	2
0	1103	91.452691987739	2
0	1107	91.551858654406	0
0	1109	91.719740565635	1
0	1111	91.818907232302	0
0	1113	92.15032432699	1
0	1115	92.249490993657	0
0	1117	92.30155374159	1
0	1119	92.400720408257	0
0	1121	92.682752578982	1
0	1123	92.781919245649	0
0	1125	93.17143743818	1
0	1127	93.270604104847	0
0	1129	94.104153936091	1
0	1131	94.203320602758	0
0	1133	94.258252485103	1
0	1135	94.35741915177	0
0	1137	95.125374775206	1
0	1139	95.224541441873	0
0	1141	95.497322364042	1
0	1143	95.596489030709	0
0	1145	95.920019638469	1
0	1147	96.019186305136	0
0	1149	96.305121647942	1
0	1151	96.36222754363	2
0	1154	96.461394210297	0
0	1156	98.107520698559	1
0	1158	98.206687365226	0
0	1160	98.507220170144	1
0	1162	98.606386836811	0
0	1164	98.904506588134	1
0	1166	99.003673254801	0
0	1168	99.147060913911	1
0	1170	99.246227580578	0
0	1172	99.499357565464	1
0	1174	99.598524232131	0
0	1176	99.765416920866	1
0	1178	99.826202606685	2
0	1181	99.915760178346	2
0	1184	100.00905155811	2
0	1187	100.108218224777	0
0	1189	100.158081178686	1
0	1191	100.257247845353	0
0	1193	100.751467094518	1
0	1195	100.850633761185	0
0	1197	100.990969328687	1
0	1199	101.090135995354	0
0	1201	101.157182839862	1
0	1203	101.256349506529	0
0	1205	101.841606721444	1
0	1207	101.940773388111	0
0	1209	101.978498136393	1
0	1211	102.07766480306	0
0	1213	102.90339050547	1
0	1215	103.002557172137	0
0	1217	103.153399320048	1
0	1219	103.171852265137	2
0	1222	103.271018931804	0
0	1224	103.31299766416	1
0	1226	103.412164330827	0
0	1228	103.737577845263	1
0	1230	103.83674451193	0
0	1232	103.892947316253	1
0	1234	103.99211398292	0
0	1236	104.214949936468	1
0	1238	104.288528941981	2
0	1241	104.387695608648	0
0	1243	104.393812432129	1
0	1245	104.424043730085	2
0	1248	104.523210396752	0
0	1250	104.583657827637	1
0	1252	104.682824494304	0
0	1254	105.173754455017	1
0	1256	105.272921121684	0
0	1258	105.314606106691	1
0	1260	105.413772773358	0
0	1262	105.713844355231	1
0	1264	105.725760631707	2
0	1267	105.824927298374	0
0	1269	106.776221992885	1
0	1271	106.875388659552	0
0	1273	106.997978262539	1
0	1275	107.097144929206	0
0	1277	107.152098251197	1
0	1279	107.251264917864	0
0	1281	107.591965625136	1
0	1283	107.691132291803	0
0	1285	107.864956525031	1
0	1287	107.964123191698	0
0	1289	108.541256479868	1
0	1291	108.640423146535	0
0	1293	108.674963058815	1
0	1295	108.774129725482	0
0	1297	109.033183931026	1
0	1299	109.132350597693	0
0	1301	109.372330273682	1
0	1303	109.455226957979	2
0	1306	109.554393624646	0
0	1308	109.854317541329	1
0	1310	109.953484207996	0
0	1312	110.032866266161	1
0	1314	110.132032932828	0
0	1316	110.487143134841	1
0	1318	110.52993157918	2
0	1321	110.629098245847	0
0	1323	111.359772013218	1
0	1325	111.362197028268	2
0	1328	111.461363694935	0
0	1330	111.721829182392	1
0	1332	111.820995849059	0
0	1334	112.07583548016	1
0	1336	112.175002146827	0
0	1338	113.110987234965	1
0	1340	113.210153901632	0
0	1342	113.747658227777	1
0	1344	113.846824894444	0
0	1346	113.861754488616	1
0	1348	113.960921155283	0
0	1350	114.160562480934	1
0	1352	114.259729147601	0
0	1354	114.687353905184	1
0	1356	114.712354585004	2
0	1358	114.78023324059	2
0	1362	114.879399907257	0
0	1364	115.107142758389	1
0	1366	115.206309425056	0
0	1368	115.399068042175	1
0	1370	115.476678232253	2
0	1373	115.57584489892	0
0	1375	115.684521237714	1
0	1377	115.783687904381	0
0	1379	116.117239955846	1
0	1381	116.216406622513	0
0	1383	116.76663704721	1
0	1385	116.865803713877	0
0	1387	117.000552646217	1
0	1389	117.003408595109	2
0	1391	117.059646742992	2
0	1395	117.158813409659	0
0	1397	117.26129815857	1
0	1399	117.360464825237	0
0	1401	117.769591851377	1
0	1403	117.858788699649	2
0	1406	117.957955366316	0
0	1408	118.110019913195	1
0	1410	118.209186579862	0
0	1412	118.306504820052	1
0	1414	118.405671486719	0
0	1416	119.11178375909	1
0	1418	119.210950425757	0
0	1420	119.708085701559	1
0	1422	119.807252368226	0
0	1424	119.822387696904	1
0	1426	119.921554363571	0
0	1428	120.064743516363	1
0	1430	120.156585016107	2
0	1433	120.255751682774	0
0	1435	120.316078885976	1
0	1437	120.415245552643	0
0	1439	121.032956260607	1
0	1441	121.118735271258	2
0	1444	121.217901937925	0
0	1446	121.329726200969	1
0	1448	121.428892867636	0
0	1450	121.934651855887	1
0	1452	122.033818522554	0
0	1454	122.087353868722	1
0	1456	122.186520535389	0
0	1458	122.866338092172	1
0	1460	122.965504758839	0
0	1462	123.029866079704	1
0	1464	123.042694441948	2
0	1467	123.141861108615	0
0	1469	123.58164218835	1
0	1471	123.623756659132	2
0	1474	123.722923325799	0
0	1476	123.87543681709	1
0	1478	123.91341122678	2
0	1481	123.97502438697	2
0	1484	124.034704606182	2
0	1487	124.133871272849	0
0	1489	124.745590742531	1
0	1491	124.844757409198	0
0	1493	124.923370947182	1
0	1495	125.021479571606	2
0	1498	125.120646238273	0
0	1500	125.277588044063	1
0	1502	125.36537543388	2
0	1504	125.369454553032	2
0	1508	125.468621219699	0
0	1510	125.66164022366	1
0	1512	125.728311754376	2
0	1515	125.827478421043	0
0	1517	126.094580480594	1
0	1519	126.193747147261	0
0	1521	126.386179479602	1
0	1523	126.478720419487	2
0	1526	126.513120448798	2
0	1529	126.612287115465	0
0	1531	127.508214034014	1
0	1533	127.524929210687	2
0	1536	127.624095877354	0
0	1538	127.71786527956	1
0	1540	127.817031946227	0
0	1542	128.211895852417	1
0	1544	128.22118169735	2
0	1547	128.320348364017	0
0	1549	128.723489576564	1
0	1551	128.822656243231	0
0	1553	129.14057245384	1
0	1555	129.239739120507	0
0	1557	131.380694235516	1
0	1559	131.479860902183	0
0	1561	131.88231339849	1
0	1563	131.981480065157	0
0	1565	132.321457167989	1
0	1567	132.420623834656	0
0	1569	132.569203537892	1
0	1571	132.668370204559	0
0	1573	133.19887372246	1
0	1575	133.298040389127	0
0	1577	133.325855562218	1
0	1579	133.425022228885	0
0	1581	133.971962969264	1
0	1583	134.071129635931	0
0	1585	134.390582483554	1
0	1587	134.489749150221	0
0	1589	134.640362110714	1
0	1591	134.739528777381	0
0	1593	135.084551903932	1
0	1595	135.095454808482	2
0	1598	135.194621475149	0
0	1600	135.549351729764	1
0	1602	135.551902318067	2
0	1605	135.651068984734	0
0	1607	136.428692581818	1
0	1609	136.527859248485	0
0	1611	136.660518131076	1
0	1613	136.759684797743	0
0	1615	136.907270608701	1
0	1617	137.006437275368	0
0	1619	137.591979958196	1
0	1621	137.691146624863	0
0	1623	137.989673673292	1
0	1625	138.088840339959	0
0	1627	138.4742108931	1
0	1629	138.481864359568	2
0	1632	138.580708069014	2
0	1635	138.679874735681	0
0	1637	138.994319954754	1
0	1639	139.093486621421	0
0	1641	139.110654861934	1
0	1643	139.209821528601	0
0	1645	139.372362098048	1
0	1647	139.403651198048	2
0	1650	139.494055320812	2
0	1653	139.593221987479	0
0	1655	140.157376915766	1
0	1657	140.256543582433	0
0	1659	140.270388280669	1
0	1661	140.278275881949	2
0	1663	140.361728932817	2
0	1665	140.366914445502	2
0	1670	140.466081112169	0
0	1672	140.501092535803	1
0	1674	140.60025920247	0
0	1676	140.832530186528	1
0	1678	140.931696853195	0
0	1680	141.044702222283	1
0	1682	141.074339651689	2
0	1685	141.173506318356	0
0	1687	141.668550465984	1
0	1689	141.681046400261	2
0	1692	141.780213066928	0
0	1694	142.071014389695	1
0	1696	142.151848123698	2
0	1699	142.251014790365	0
0	1701	142.321765013032	1
0	1703	142.420931679699	0
0	1705	142.476989146802	1
0	1707	142.576155813469	0
0	1709	142.597783322902	1
0	1711	142.679918690446	2
0	1714	142.779085357113	0
0	1716	143.112519009513	1
0	1718	143.207650667286	2
0	1721	143.282036493335	2
0	1724	143.381203160002	0
0	1726	143.657478988194	1
0	1728	143.712373392265	2
0	1731	143.811540058932	0
0	1733	144.800626082964	1
0	1735	144.899792749631	0
0	1737	144.915242290571	1
0	1739	145.014408957238	0
0	1741	145.459490647408	1
0	1743	145.558657314075	0
0	1745	145.843814013764	1
0	1747	145.934562507367	2
0	1750	146.033729174034	0
0	1752	146.567950095913	1
0	1754	146.66711676258	0
0	1756	146.685382895151	1
0	1758	146.720184372657	2
0	1761	146.819351039324	0
0	1763	147.008536040935	1
0	1765	147.039140452665	2
0	1768	147.138307119332	0
0	1770	148.154006208105	1
0	1772	148.253172874772	0
0	1774	148.576179255053	1
0	1776	148.592551292798	2
0	1779	148.691717959465	0
0	1781	149.035115659114	1
0	1783	149.081833291549	2
0	1786	149.180999958216	0
0	1788	149.226141795509	1
0	1790	149.325308462176	0
0	1792	150.232702324847	1
0	1794	150.331868991514	0
0	1796	150.368037019568	1
0	1798	150.467203686235	0
0	1800	150.582631624034	1
0	1802	150.681798290701	0
0	1804	150.808079868779	1
0	1806	150.907246535446	0
0	1808	151.254230281745	1
0	1810	151.353396948412	0
0	1812	151.650276705077	1
0	1814	151.749443371744	0
0	1816	151.783727401598	1
0	1818	151.784565059223	2
0	1820	151.868106349175	2
0	1824	151.967273015842	0
0	1826	152.030609613988	1
0	1828	152.129776280655	0
0	1830	152.663130678035	1
0	1832	152.762297344702	0
0	1834	153.405998719505	1
0	1836	153.505165386172	0
0	1838	153.533720629454	1
0	1840	153.632887296121	0
0	1842	153.795246721085	1
0	1844	153.894413387752	0
0	1846	153.95909521505	1
0	1848	153.980859710487	2
0	1850	153.999898810506	2
0	1854	154.099065477173	0
0	1856	154.150375194834	1
0	1858	154.249541861501	0
0	1860	154.5750875393	1
0	1862	154.674254205967	0
0	1864	155.431376846752	1
0	1866	155.530543513419	0
0	1868	156.017833945809	1
0	1870	156.066325436739	2
0	1873	156.165492103406	0
0	1875	156.595731254297	1
0	1877	156.694897920964	0
0	1879	156.710658633197	1
0	1881	156.781022618782	2
0	1884	156.831383538732	2
0	1887	156.930550205399	0
0	1889	157.094578798499	1
0	1891	157.193745465166	0
0	1893	157.563280780719	1
0	1895	157.662447447386	0
0	1897	157.874792159863	1
0	1899	157.957428794106	2
0	1902	158.056595460773	0
0	1904	158.477852901497	1
0	1906	158.552491693026	2
0	1909	158.588660035307	2
0	1912	158.687826701974	0
0	1914	158.771838605953	1
0	1916	158.87100527262	0
0	1918	159.163963262239	1
0	1920	159.263129928906	0
0	1922	159.373676480321	1
0	1924	159.472843146988	0
0	1926	159.602147450665	1
0	1928	159.701314117332	0
0	1930	159.714403562768	1
0	1932	159.813570229435	0
0	1934	160.000509832218	1
0	1936	160.099676498885	0
0	1938	160.23348622624	1
0	1940	160.332652892907	0
0	1942	160.624624489098	1
0	1944	160.723791155765	0
0	1946	160.830406320306	1
0	1948	160.929572986973	0
0	1950	161.06710014726	1
0	1952	161.166266813927	0
0	1954	161.912682599137	1
0	1956	161.993641277798	2
0	1959	162.092807944465	0
0	1961	162.127092040058	1
0	1963	162.226258706725	0
0	1965	162.397300044315	1
0	1967	162.496466710982	0
0	1969	162.579883895573	1
0	1971	162.67905056224	0
0	1973	164.078321752783	1
0	1975	164.118353490052	2
0	1978	164.217520156719	0
0	1980	164.345845774149	1
0	1982	164.445012440816	0
0	1984	164.545867287959	1
0	1986	164.645033954626	0
0	1988	164.850164773386	1
0	1990	164.949331440053	0
0	1992	165.644987731758	1
0	1994	165.744154398425	0
0	1996	166.28708346283	1
0	1998	166.386250129497	0
0	2000	166.495713227016	1
0	2002	166.545082674457	2
0	2005	166.644249341124	0
0	2007	166.821410425617	1
0	2009	166.920577092284	0
0	2011	167.210961380473	1
0	2013	167.31012804714	0
0	2015	167.420816206321	1
0	2017	167.519982872988	0
0	2019	167.613143585805	1
0	2021	167.700528530435	2
0	2024	167.799695197102	0
0	2026	167.907644847952	1
0	2028	168.006811514619	0
0	2030	168.450647501563	1
0	2032	168.54981416823	0
0	2034	168.709367741639	1
0	2036	168.808534408306	0
0	2038	168.944300166648	1
0	2040	169.043466833315	0
0	2042	170.079070330051	1
0	2044	170.178236996718	0
0	2046	170.216936473086	1
0	2048	170.316103139753	0
0	2050	171.315986688588	1
0	2052	171.415153355255	0
0	2054	171.728567072279	1
0	2056	171.827733738946	0
0	2058	171.903828130479	1
0	2060	172.002994797146	0
0	2062	172.260417506664	1
0	2064	172.359584173331	0
0	2066	172.754379374857	1
0	2068	172.853546041524	0
0	2070	172.982186330676	1
0	2072	173.081352997343	0
0	2074	173.707037463858	1
0	2076	173.806204130525	0
0	2078	174.167142383952	1
0	2080	174.266309050619	0
0	2082	174.284165381946	1
0	2084	174.383332048613	0
0	2086	174.535080400816	1
0	2088	174.634247067483	0
0	2090	175.014217884591	1
0	2092	175.113384551258	0
0	2094	175.764537846912	1
0	2096	175.863704513579	0
0	2098	175.957293417816	1
0	2100	176.056460084483	0
0	2102	176.183881249843	1
0	2104	176.28304791651	0
0	2106	176.287506270345	1
0	2108	176.356522084834	2
0	2111	176.455688751501	0
0	2113	176.736299192215	1
0	2115	176.835465858882	0
0	2117	177.178914785996	1
0	2119	177.278081452663	0
0	2121	177.456456117628	1
0	2123	177.555622784295	0
0	2125	177.631214813888	1
0	2127	177.730381480555	0
0	2129	178.100996884969	1
0	2131	178.172381199499	2
0	2134	178.271547866166	0
0	2136	178.374362280925	1
0	2138	178.420360725315	2
0	2141	178.519527391982	0
0	2143	178.642685347619	1
0	2145	178.741852014286	0
0	2147	179.154358601903	1
0	2149	179.25352526857	0
0	2151	179.458707555982	1
0	2153	179.557874222649	0
0	2155	179.573644186487	1
0	2157	179.672810853154	0
0	2159	180.463204981927	1
0	2161	180.562371648594	0
0	2163	180.783553761222	1
0	2165	180.882720427889	0
0	2167	180.917272959728	1
0	2169	181.016439626395	0
0	2171	181.584232661291	1
0	2173	181.589538614456	2
0	2176	181.688705281123	0
0	2178	181.749123030004	1
0	2180	181.782337051835	2
0	2182	181.839603750053	2
0	2186	181.885574092554	2
0	2189	181.984740759221	0
0	2191	182.320504857337	1
0	2193	182.326620033787	2
0	2196	182.425786700454	0
0	2198	182.647423507301	1
0	2200	182.746590173968	0
0	2202	183.217235001096	1
0	2204	183.316401667763	0
0	2206	183.756376029599	1
0	2208	183.855542696266	0
0	2210	183.920176204902	1
0	2212	183.959695049977	2
0	2215	184.058861716644	0
0	2217	184.224177385613	1
0	2219	184.31073054345	2
0	2222	184.388823013391	2
0	2225	184.487989680058	0
0	2227	184.740643335425	1
0	2229	184.839810002092	0
0	2231	184.922233173909	1
0	2233	185.021399840576	0
0	2235	185.504641033637	1
0	2237	185.603807700304	0
0	2239	185.746951345383	1
0	2241	185.84611801205	0
0	2243	185.863714950955	1
0	2245	185.962881617622	0
0	2247	186.580148792444	1
0	2249	186.679315459111	0
0	2251	187.191290087447	1
0	2253	187.290456754114	0
0	2255	187.385060852437	1
0	2257	187.484227519104	0
0	2259	187.74365660726	1
0	2261	187.842823273927	0
0	2263	188.085788824451	1
0	2265	188.126396827029	2
0	2268	188.225563493696	0
0	2270	188.637894029832	1
0	2272	188.737060696499	0
0	2274	188.871464090512	1
0	2276	188.970630757179	0
0	2278	189.089177391898	1
0	2280	189.188344058565	0
0	2282	189.632201306934	1
0	2284	189.731367973601	0
0	2286	189.777613650692	1
0	2288	189.876780317359	0
0	2290	189.95607988891	1
0	2292	190.055246555577	0
0	2294	190.066093875867	1
0	2296	190.165260542534	0
0	2298	190.297307951335	1
0	2300	190.389477923025	2
0	2303	190.488644589692	0
0	2305	190.557124397959	1
0	2307	190.656291064626	0
0	2309	190.684886894552	1
0	2311	190.784053561219	0
0	2313	190.806318017234	1
0	2315	190.905484683901	0
0	2317	191.058041728449	1
0	2319	191.102421682535	2
0	2322	191.201588349202	0
0	2324	191.508184943083	1
0	2326	191.60735160975	0
0	2328	191.747025968141	1
0	2330	191.811436748191	2
0	2333	191.910603414858	0
0	2335	192.3345727621	1
0	2337	192.433739428767	0
0	2339	193.095271209502	1
0	2341	193.194437876169	0
0	2343	193.432338747868	1
0	2345	193.531505414535	0
0	2347	193.595524773049	1
0	2349	193.694691439716	0
0	2351	194.376715030495	1
0	2353	194.460078225053	2
0	2356	194.55924489172	0
0	2358	194.887050926084	1
0	2360	194.890052118819	2
0	2363	194.989218785486	0
0	2365	196.857683010739	1
0	2367	196.956849677406	0
0	2369	197.138444115267	1
0	2371	197.237610781934	0
0	2373	198.646620869907	1
0	2375	198.745787536574	0
0	2377	198.778716401043	1
0	2379	198.87788306771	0
0	2381	198.964855629738	1
0	2383	199.064022296405	0
0	2385	199.27601422726	1
0	2387	199.375180893927	0
0	2389	199.550999622631	1