version 2
run PureAlohaExperiment-12-20170627-20:42:16-22741
attr configname PureAlohaExperiment
attr datetime 20170627-20:42:16
attr experiment PureAlohaExperiment
attr inifile omnetpp.ini
attr iterationvars "numHosts=10, iaMean=9"
attr iterationvarsf numHosts=10,iaMean=9-
attr measurement "numHosts=10, iaMean=9"
attr network Aloha
attr processid 22741
attr repetition 0
attr replication #0
attr resultdir results
attr runnumber 12
attr seedset 12
itervar iaMean 9
itervar numHosts 10
param Aloha.numHosts 10
param Aloha.host[*].iaTime exponential(9s)
param Aloha.numHosts 20
param Aloha.slotTime 0
param Aloha.txRate 9.6kbps
param Aloha.host[*].pkLenBits 952b
param **.x "uniform(0m, 1000m)"
param **.y "uniform(0m, 1000m)"
param **.animationHoldTimeOnCollision 0s
param **.idleAnimationSpeed 1
param **.transmissionEdgeAnimationSpeed 1e-6
param **.midTransmissionAnimationSpeed 1e-1

vector 0 Aloha.server serverChannelState:vector ETV
attr enum IDLE=0,TRANSMISSION=1,COLLISION=2
attr source channelState
attr title "Channel state, vector"
vector 1 Aloha.host[0] radioState:vector ETV
attr enum IDLE=0,TRANSMIT=1
attr source state
attr title "Radio state, vector"
vector 2 Aloha.host[1] radioState:vector ETV
attr enum IDLE=0,TRANSMIT=1
attr source state
attr title "Radio state, vector"
vector 3 Aloha.host[2] radioState:vector ETV
attr enum IDLE=0,TRANSMIT=1
attr source state
attr title "Radio state, vector"
vector 4 Aloha.host[3] radioState:vector ETV
attr enum IDLE=0,TRANSMIT=1
attr source state
attr title "Radio state, vector"
vector 5 Aloha.host[4] radioState:vector ETV
attr enum IDLE=0,TRANSMIT=1
attr source state
attr title "Radio state, vector"
vector 6 Aloha.host[5] radioState:vector ETV
attr enum IDLE=0,TRANSMIT=1
attr source state
attr title "Radio state, vector"
vector 7 Aloha.host[6] radioState:vector ETV
attr enum IDLE=0,TRANSMIT=1
attr source state
attr title "Radio state, vector"
vector 8 Aloha.host[7] radioState:vector ETV
attr enum IDLE=0,TRANSMIT=1
attr source state
attr title "Radio state, vector"
vector 9 Aloha.host[8] radioState:vector ETV
attr enum IDLE=0,TRANSMIT=1
attr source state
attr title "Radio state, vector"
vector 10 Aloha.host[9] radioState:vector ETV
attr enum IDLE=0,TRANSMIT=1
attr source state
attr title "Radio state, vector"
0	0	0	0
0	2	0.020357433448	1
0	4	0.119524100115	0
0	6	1.441243663751	1
0	8	1.540410330418	0
0	10	1.89511823644	1
0	12	1.994284903107	0
0	14	5.911862195527	1
0	16	6.011028862194	0
0	18	6.628740238093	1
0	20	6.72790690476	0
0	22	7.346938580905	1
0	24	7.446105247572	0
0	26	7.973178341545	1
0	28	8.072345008212	0
0	30	8.384541971805	1
0	32	8.483708638472	0
0	34	9.64920827703	1
0	36	9.748374943697	0
0	38	13.963805413884	1
0	40	14.062972080551	0
0	42	16.388409303296	1
0	44	16.487575969963	0
0	46	16.676840333046	1
0	48	16.776006999713	0
0	50	17.239730253893	1
0	52	17.33889692056	0
0	54	18.64631591037	1
0	56	18.745482577037	0
0	58	19.882273714063	1
0	60	19.98144038073	0
0	62	21.093904400266	1
0	64	21.193071066933	0
0	66	21.516278052917	1
0	68	21.615444719584	0
0	70	21.929046215264	1
0	72	22.028212881931	0
0	74	22.765084751633	1
0	76	22.8642514183	0
0	78	22.942723192861	1
0	80	23.041889859528	0
0	82	23.468067966756	1
0	84	23.567234633423	0
0	86	24.95368202845	1
0	88	25.052848695117	0
0	90	25.977889279538	1
0	92	26.077055946205	0
0	94	27.091123682726	1
0	96	27.190290349393	0
0	98	29.279226123863	1
0	100	29.302046450973	2
0	103	29.40121311764	0
0	105	30.803718643688	1
0	107	30.902885310355	0
0	109	31.318071403407	1
0	111	31.417238070074	0
0	113	31.906883088595	1
0	115	32.006049755262	0
0	117	32.455569199567	1
0	119	32.554735866234	0
0	121	32.881920160038	1
0	123	32.952596309632	2
0	126	33.051762976299	0
0	128	34.170838733594	1
0	130	34.270005400261	0
0	132	35.918934630306	1
0	134	36.018101296973	0
0	136	36.123117624908	1
0	138	36.222284291575	0
0	140	36.361425417253	1
0	142	36.46059208392	0
0	144	36.552795102237	1
0	146	36.651961768904	0
0	148	37.020182086783	1
0	150	37.11934875345	0
0	152	37.936950557047	1
0	154	38.036117223714	0
0	156	38.669573518587	1
0	158	38.768740185254	0
0	160	40.476578173015	1
0	162	40.575744839682	0
0	164	41.320667419247	1
0	166	41.419834085914	0
0	168	42.586751887144	1
0	170	42.685918553811	0
0	172	42.791692328627	1
0	174	42.890858995294	0
0	176	42.920821497256	1
0	178	43.019988163923	0
0	180	44.555907904308	1
0	182	44.655074570975	0
0	184	45.469401252691	1
0	186	45.568567919358	0
0	188	47.717578626894	1
0	190	47.816745293561	0
0	192	49.584417422892	1
0	194	49.683584089559	0
0	196	49.987154574949	1
0	198	50.086321241616	0
0	200	50.970536766071	1
0	202	51.069703432738	0
0	204	51.156232491247	1
0	206	51.255399157914	0
0	208	53.704587882064	1
0	210	53.803754548731	0
0	212	54.290494036953	1
0	214	54.38966070362	0
0	216	55.563118021763	1
0	218	55.66228468843	0
0	220	56.25111293074	1
0	222	56.350279597407	0
0	224	57.204515574907	1
0	226	57.303682241574	0
0	228	58.373118114242	1
0	230	58.472284780909	0
0	232	59.614961700239	1
0	234	59.714128366906	0
0	236	62.194600582823	1
0	238	62.29376724949	0
0	240	64.107604680085	1
0	242	64.206771346752	0
0	244	64.67977642896	1
0	246	64.778943095627	0
0	248	64.96602531005	1
0	250	65.054319746122	2
0	253	65.153486412789	0
0	255	69.276856675643	1
0	257	69.37602334231	0
0	259	69.805081463486	1
0	261	69.904248130153	0
0	263	70.511990216586	1
0	265	70.596490549685	2
0	268	70.695657216352	0
0	270	70.933370949234	1
0	272	71.032537615901	0
0	274	71.824867305032	1
0	276	71.924033971699	0
0	278	72.182940344782	1
0	280	72.282107011449	0
0	282	74.681570754499	1
0	284	74.779190912236	2
0	287	74.878357578903	0
0	289	75.013971604367	1
0	291	75.113138271034	0
0	293	75.905795914176	1
0	295	76.004962580843	0
0	297	76.259704122999	1
0	299	76.358870789666	0
0	301	76.490313554746	1
0	303	76.589480221413	0
0	305	77.515707696718	1
0	307	77.614874363385	0
0	309	79.80174146241	1
0	311	79.900908129077	0
0	313	82.146902526	1
0	315	82.246069192667	0
0	317	82.884809984948	1
0	319	82.983976651615	0
0	321	83.493300207564	1
0	323	83.592466874231	0
0	325	83.978716408628	1
0	327	84.077883075295	0
0	329	84.150524797845	1
0	331	84.249691464512	0
0	333	85.236301540866	1
0	335	85.335468207533	0
0	337	86.088867159989	1
0	339	86.188033826656	0
0	341	86.760234696616	1
0	343	86.859401363283	0
0	345	87.30418181707	1
0	347	87.403348483737	0
0	349	87.851625640631	1
0	351	87.950792307298	0
0	353	89.815167935925	1
0	355	89.843342734187	2
0	358	89.914708138992	2
0	361	90.013874805659	0
0	363	90.094043842586	1
0	365	90.181855410061	2
0	368	90.281022076728	0
0	370	90.74467621646	1
0	372	90.843842883127	0
0	374	90.94010357389	1
0	376	91.039270240557	0
0	378	91.278510630214	1
0	380	91.377677296881	0
0	382	92.773666629408	1
0	384	92.872833296075	0
0	386	93.764416575538	1
0	388	93.863583242205	0
0	390	95.596991285651	1
0	392	95.696157952318	0
0	394	97.537838192153	1
0	396	97.63700485882	0
0	398	98.952784653637	1
0	400	99.006737377811	2
0	403	99.105904044478	0
0	405	99.972119730422	1
0	407	100.071286397089	0
0	409	100.539865176504	1
0	411	100.614588867933	2
0	414	100.7137555346	0
0	416	100.924666150879	1
0	418	101.023832817546	0
0	420	103.460320954626	1
0	422	103.559487621293	0
0	424	103.994119377462	1
0	426	104.093286044129	0
0	428	104.587107769179	1
0	430	104.675615721613	2
0	433	104.77478238828	0
0	435	104.804688157161	1
0	437	104.903854823828	0
0	439	105.471605690552	1
0	441	105.570772357219	0
0	443	106.875923796167	1
0	445	106.975090462834	0
0	447	107.076256918868	1
0	449	107.175423585535	0
0	451	107.43909842075	1
0	453	107.538265087417	0
0	455	109.401395455134	1
0	457	109.500562121801	0
0	459	110.055591246116	1
0	461	110.154757912783	0
0	463	111.456920344219	1
0	465	111.556087010886	0
0	467	111.604996243459	1
0	469	111.704162910126	0
0	471	112.415722161156	1
0	473	112.514888827823	0
0	475	112.6946613872	1
0	477	112.793828053867	0
0	479	112.898990219067	1
0	481	112.998156885734	0
0	483	113.201668921352	1
0	485	113.300835588019	0
0	487	114.764672691892	1
0	489	114.863839358559	0
0	491	115.040031691427	1
0	493	115.139198358094	0
0	495	115.148658588137	1
0	497	115.247825254804	0
0	499	117.009343559146	1
0	501	117.108510225813	0
0	503	118.355620874814	1
0	505	118.454787541481	0
0	507	120.354680395598	1
0	509	120.453847062265	0
0	511	120.617102461272	1
0	513	120.716269127939	0
0	515	120.90119061156	1
0	517	121.000357278227	0
0	519	121.136359301932	1
0	521	121.235525968599	0
0	523	124.60614310769	1
0	525	124.705309774357	0
0	527	125.097366816277	1
0	529	125.196533482944	0
0	531	126.914765010098	1
0	533	127.013931676765	0
0	535	127.110554736504	1
0	537	127.209721403171	0
0	539	127.584522430891	1
0	541	127.683689097558	0
0	543	128.445344405682	1
0	545	128.544511072349	0
0	547	128.573309557425	1
0	549	128.672476224092	0
0	551	130.505792104692	1
0	553	130.604958771359	0
0	555	130.662580400486	1
0	557	130.761747067153	0
0	559	133.656956815114	1
0	561	133.756123481781	0
0	563	135.056095597918	1
0	565	135.155262264585	0
0	567	136.312104527929	1
0	569	136.402336398256	2
0	572	136.501503064923	0
0	574	137.186529618899	1
0	576	137.261373974158	2
0	579	137.360540640825	0
0	581	137.591656650939	1
0	583	137.690823317606	0
0	585	138.033097385178	1
0	587	138.132264051845	0
0	589	138.571171296137	1
0	591	138.670337962804	0
0	593	139.299570692027	1
0	595	139.398737358694	0
0	597	139.875305037441	1
0	599	139.974471704108	0
0	601	140.386593098765	1
0	603	140.485759765432	0
0	605	142.175176502164	1
0	607	142.274343168831	0
0	609	142.947827761103	1
0	611	143.04699442777	0
0	613	143.357590498149	1
0	615	143.456757164816	0
0	617	144.823286389526	1
0	619	144.85631267104	2
0	622	144.955479337707	0
0	624	144.985119767001	1
0	626	145.084286433668	0
0	628	145.783315590005	1
0	630	145.872906271495	2
0	633	145.972072938162	0
0	635	146.805294067284	1
0	637	146.904460733951	0
0	639	151.776955780539	1
0	641	151.876122447206	0
0	643	152.314829283307	1
0	645	152.413995949974	0
0	647	152.467337937477	1
0	649	152.566504604144	0
0	651	153.966325619183	1
0	653	154.06549228585	0
0	655	155.791189419029	1
0	657	155.890356085696	0
0	659	156.019107519406	1
0	661	156.118274186073	0
0	663	156.47820773487	1
0	665	156.577374401537	0
0	667	159.790540253466	1
0	669	159.889706920133	0
0	671	160.496647072099	1
0	673	160.595813738766	0
0	675	161.45601674617	1
0	677	161.555183412837	0
0	679	163.33380612986	1
0	681	163.432972796527	0
0	683	165.857683192097	1
0	685	165.956849858764	0
0	687	166.097614345065	1
0	689	166.196781011732	0
0	691	166.336529483402	1
0	693	166.435696150069	0
0	695	166.615067508101	1
0	697	166.714234174768	0
0	699	167.307243973823	1
0	701	167.40641064049	0
0	703	167.469760682381	1
0	705	167.568927349048	0
0	707	168.041022486458	1
0	709	168.058324416272	2
0	712	168.157491082939	0
0	714	169.620829457594	1
0	716	169.719996124261	0
0	718	169.805109959928	1
0	720	169.904276626595	0
0	722	170.048303998732	1
0	724	170.147470665399	0
0	726	172.096050708233	1
0	728	172.1952173749	0
0	730	173.842202733714	1
0	732	173.941369400381	0
0	734	174.194902332718	1
0	736	174.294068999385	0
0	738	174.974915288522	1
0	740	175.074081955189	0
0	742	175.310099984793	1
0	744	175.40926665146	0
0	746	176.069795474807	1
0	748	176.168962141474	0
0	750	176.933730200257	1
0	752	177.032896866924	0
0	754	177.560438599668	1
0	756	177.659605266335	0
0	758	178.060419090801	1
0	760	178.155629248631	2
0	763	178.254795915298	0
0	765	178.369445472936	1
0	767	178.468612139603	0
0	769	179.339330664731	1
0	771	179.438497331398	0
0	773	179.995869865377	1
0	775	180.095036532044	0
0	777	180.287356943918	1
0	779	180.386523610585	0
0	781	180.809202572858	1
0	783	180.908369239525	0
0	785	181.485793342064	1
0	787	181.584960008731	0
0	789	181.681859862607	1
0	791	181.781026529274	0
0	793	182.658231557788	1
0	795	182.757398224455	0
0	797	184.325767731464	1
0	799	184.424934398131	0
0	801	186.191684160282	1
0	803	186.290850826949	0
0	805	186.41332524867	1
0	807	186.512491915337	0
0	809	188.035336346978	1
0	811	188.134503013645	0
0	813	188.181807208012	1
0	815	188.280973874679	0
0	817	188.514000669285	1
0	819	188.613167335952	0
0	821	188.771450146807	1
0	823	188.870616813474	0
0	825	189.444263581511	1
0	827	189.543430248178	0
0	829	189.782596770021	1
0	831	189.881763436688	0
0	833	190.528685315616	1
0	835	190.627851982283	0
0	837	191.536066663945	1
0	839	191.635233330612	0
0	841	191.789920376537	1
0	843	191.889087043204	0
0	845	191.89322200745	1
0	847	191.992388674117	0
0	849	193.31592920657	1
0	851	193.415095873237	0
0	853	194.179782052021	1
0	855	194.278948718688	0
0	857	194.458698125795	1
0	859	194.524040476429	2
0	862	194.623207143096	0
0	864	194.780723476982	1
0	866	194.879890143649	0
0	868	196.095953269159	1
0	870	196.132928494603	2
0	873	196.23209516127	0
0	875	196.45936378502	1
0	877	196.492107512101	2
0	880	196.591274178768	0
0	882	196.909604151169	1
0	884	197.008770817836	0
0	886	197.138931322309	1
0	888	197.238097988976	0
0	890	198.705039857607	1
0	892	198.804206524274	0
0	894	199.675232756767	1
0	896	199.774399423434	0
0	898	199.855765563508	1
0	900	199.954932230175	0
0	902	200.521579973213	1
0	904	200.62074663988	0
0	906	201.251904848867	1
0	908	201.351071515534	0
0	910	201.90879573151	1
0	912	202.007962398177	0
0	914	202.288569845801	1
0	916	202.387736512468	0
0	918	204.539450525992	1
0	920	204.592043551463	2
0	923	204.69121021813	0
0	925	205.207270820185	1
0	927	205.306437486852	0
0	929	205.960689524925	1
0	931	206.059856191592	0
0	933	206.102341712776	1
0	935	206.201508379443	0
0	937	206.273828253469	1
0	939	206.372994920136	0
0	941	206.541467294707	1
0	943	206.640633961374	0
0	945	206.735073360213	1
0	947	206.83424002688	0
0	949	207.065168374214	1
0	951	207.14291597163	2
0	954	207.242082638297	0
0	956	208.306597876026	1
0	958	208.331256307851	2
0	961	208.430422974518	0
0	963	209.201690573684	1
0	965	209.300857240351	0
0	967	209.443413751472	1
0	969	209.46982525591	2
0	972	209.568991922577	0
0	974	210.87677662864	1
0	976	210.975943295307	0
0	978	212.714669262662	1
0	980	212.813835929329	0
0	982	215.353955632183	1
0	984	215.38063238299	2
0	987	215.479799049657	0
0	989	215.778271620651	1
0	991	215.877438287318	0
0	993	216.893767690874	1
0	995	216.979215485247	2
0	998	217.078382151914	0
0	1000	218.012017428798	1
0	1002	218.111184095465	0
0	1004	218.578544035634	1
0	1006	218.668797448421	2
0	1009	218.767964115088	0
0	1011	219.558493655173	1
0	1013	219.65766032184	0
0	1015	221.259002199788	1
0	1017	221.358168866455	0
0	1019	221.539996855033	1
0	1021	221.6391635217	0
0	1023	224.746167106628	1
0	1025	224.845333773295	0
0	1027	227.435138080174	1
0	1029	227.534304746841	0
0	1031	227.946204123165	1
0	1033	228.045370789832	0
0	1035	229.422580405043	1
0	1037	229.52174707171	0
0	1039	229.890681054892	1
0	1041	229.989847721559	0
0	1043	231.427328160407	1
0	1045	231.526494827074	0
0	1047	231.911579202067	1
0	1049	232.010745868734	0
0	1051	232.724991388241	1
0	1053	232.824158054908	0
0	1055	233.095054353778	1
0	1057	233.194221020445	0
0	1059	235.621674215697	1
0	1061	235.720840882364	0
0	1063	237.383453553847	1
0	1065	237.43410519684	2
0	1068	237.533271863507	0
0	1070	237.537072765247	1
0	1072	237.636239431914	0
0	1074	238.771340151516	1
0	1076	238.870506818183	0
0	1078	238.937074588436	1
0	1080	239.036241255103	0
0	1082	239.13868616411	1
0	1084	239.237852830777	0
0	1086	240.722773775883	1
0	1088	240.82194044255	0
0	1090	241.299419588594	1
0	1092	241.398586255261	0
0	1094	241.618364608964	1
0	1096	241.717531275631	0
0	1098	242.046533343925	1
0	1100	242.145700010592	0
0	1102	242.197333487632	1
0	1104	242.296500154299	0
0	1106	242.88614276861	1
0	1108	242.985309435277	0
0	1110	242.995364920673	1
0	1112	243.09453158734	0
0	1114	244.009299765047	1
0	1116	244.108466431714	0
0	1118	244.48396491265	1
0	1120	244.583131579317	0
0	1122	245.959493526559	1
0	1124	246.058660193226	0
0	1126	246.897047934492	1
0	1128	246.996214601159	0
0	1130	247.991008403817	1
0	1132	248.090175070484	0
0	1134	248.267365293865	1
0	1136	248.366531960532	0
0	1138	248.36987086689	1
0	1140	248.469037533557	0
0	1142	249.990738045244	1
0	1144	250.089904711911	0
0	1146	250.210895123583	1
0	1148	250.31006179025	0
0	1150	253.079694107858	1
0	1152	253.178860774525	0
0	1154	255.555399350742	1
0	1156	255.654566017409	0
0	1158	256.324056457598	1
0	1160	256.423223124265	0
0	1162	257.036801079947	1
0	1164	257.135967746614	0
0	1166	258.817399193023	1
0	1168	258.91656585969	0
0	1170	260.86785239147	1
0	1172	260.967019058137	0
0	1174	261.380567766284	1
0	1176	261.479734432951	0
0	1178	263.693393624594	1
0	1180	263.792560291261	0
0	1182	263.826215705106	1
0	1184	263.925382371773	0
0	1186	264.137801300543	1
0	1188	264.23696796721	0
0	1190	264.720689808499	1
0	1192	264.819856475166	0
0	1194	265.037161148728	1
0	1196	265.136327815395	0
0	1198	266.237087330001	1
0	1200	266.336253996668	0
0	1202	267.368305042638	1
0	1204	267.467471709305	0
0	1206	269.955938531744	1
0	1208	270.055105198411	0
0	1210	270.722020537422	1
0	1212	270.821187204089	0
0	1214	270.916882608922	1
0	1216	271.016049275589	0
0	1218	271.222344838931	1
0	1220	271.321511505598	0
0	1222	271.919110063807	1
0	1224	272.018276730474	0
0	1226	272.405402641832	1
0	1228	272.504569308499	0
0	1230	273.106598035282	1
0	1232	273.205764701949	0
0	1234	274.194728879516	1
0	1236	274.293895546183	0
0	1238	275.123083867818	1
0	1240	275.222250534485	0
0	1242	275.795348599759	1
0	1244	275.894515266426	0
0	1246	276.471506928202	1
0	1248	276.570673594869	0
0	1250	276.702806368887	1
0	1252	276.801973035554	0
0	1254	276.841677303915	1
0	1256	276.884076997313	2
0	1259	276.98324366398	0
0	1261	277.771817902963	1
0	1263	277.87098456963	0
0	1265	279.05292782069	1
0	1267	279.152094487357	0
0	1269	282.585800484157	1
0	1271	282.684967150824	0
0	1273	284.302275693682	1
0	1275	284.401442360349	0
0	1277	284.433485340461	1
0	1279	284.508455662977	2
0	1282	284.607622329644	0
0	1284	285.85695597685	1
0	1286	285.956122643517	0
0	1288	286.421482880854	1
0	1290	286.520649547521	0
0	1292	287.94482949642	1
0	1294	288.043996163087	0
0	1296	288.941110367174	1
0	1298	289.040277033841	0
0	1300	289.099017860481	1
0	1302	289.18360548244	2
0	1305	289.282772149107	0
0	1307	289.669668923441	1
0	1309	289.768835590108	0
0	1311	289.772692199324	1
0	1313	289.871858865991	0
0	1315	290.347529320534	1
0	1317	290.446695987201	0
0	1319	291.035935402545	1
0	1321	291.135102069212	0
0	1323	291.454086029924	1
0	1325	291.553252696591	0
0	1327	303.191338484605	1
0	1329	303.290505151272	0
0	1331	304.149134442009	1
0	1333	304.248301108676	0
0	1335	304.855648545936	1
0	1337	304.954815212603	0
0	1339	307.187910047842	1
0	1341	307.287076714509	0
0	1343	307.321265872144	1
0	1345	307.420432538811	0
0	1347	307.887692553468	1
0	1349	307.986859220135	0
0	1351	308.163579036087	1
0	1353	308.262745702754	0
0	1355	308.895480774113	1
0	1357	308.99464744078	0
0	1359	311.131243172461	1
0	1361	311.230409839128	0
0	1363	311.383607551332	1
0	1365	311.482774217999	0
0	1367	312.18141821847	1
0	1369	312.226409197418	2
0	1372	312.325575864085	0
0	1374	312.753315502358	1
0	1376	312.775739978865	2
0	1379	312.874906645532	0
0	1381	313.024817831071	1
0	1383	313.123984497738	0
0	1385	313.975737185775	1
0	1387	314.074903852442	0
0	1389	315.033302170323	1
0	1391	315.13246883699	0
0	1393	316.88043840411	1
0	1395	316.979605070777	0
0	1397	317.939269587492	1
0	1399	318.038436254159	0
0	1401	320.228398203941	1
0	1403	320.23029639234	2
0	1406	320.329463059007	0
0	1408	322.042635523839	1
0	1410	322.141802190506	0
0	1412	322.142932800439	1
0	1414	322.242099467106	0
0	1416	323.6098346471	1
0	1418	323.709001313767	0
0	1420	324.95906773968	1
0	1422	325.058234406347	0
0	1424	325.299976818194	1
0	1426	325.390528227255	2
0	1429	325.489694893922	0
0	1431	328.956233060404	1
0	1433	329.055399727071	0
0	1435	329.109772334875	1
0	1437	329.208939001542	0
0	1439	329.854677402015	1
0	1441	329.953844068682	0
0	1443	333.366895288523	1
0	1445	333.46606195519	0
0	1447	333.834763845954	1
0	1449	333.933930512621	0
0	1451	335.438782436142	1
0	1453	335.537949102809	0
0	1455	339.058587377618	1
0	1457	339.157754044285	0
0	1459	340.503647646557	1
0	1461	340.531483838614	2
0	1464	340.630650505281	0
0	1466	340.870398817864	1
0	1468	340.969565484531	0
0	1470	341.769983285114	1
0	1472	341.869149951781	0
0	1474	341.93451139631	1
0	1476	341.991939904081	2
0	1479	342.091106570748	0
0	1481	343.981526791762	1
0	1483	344.080693458429	0
0	1485	345.092861112576	1
0	1487	345.192027779243	0
0	1489	346.12205904003	1
0	1491	346.132322936393	2
0	1494	346.23148960306	0
0	1496	347.160286587559	1
0	1498	347.259453254226	0
0	1500	348.156672880811	1
0	1502	348.255839547478	0
0	1504	348.82340557372	1
0	1506	348.922572240387	0
0	1508	349.974297209344	1
0	1510	350.012253268145	2
0	1513	350.111419934812	0
0	1515	350.718914756125	1
0	1517	350.777644788801	2
0	1520	350.876811455468	0
0	1522	352.872958234098	1
0	1524	352.972124900765	0
0	1526	353.10144613905	1
0	1528	353.200612805717	0
0	1530	353.388501460492	1
0	1532	353.487668127159	0
0	1534	354.218641066166	1
0	1536	354.317807732833	0
0	1538	354.628943950829	1
0	1540	354.728110617496	0
0	1542	354.762016677589	1
0	1544	354.861183344256	0
0	1546	355.352881345013	1
0	1548	355.45204801168	0
0	1550	356.232368027491	1
0	1552	356.331534694158	0
0	1554	358.646194063228	1
0	1556	358.745360729895	0
0	1558	358.862546775802	1
0	1560	358.961713442469	0
0	1562	361.377471199746	1
0	1564	361.476637866413	0
0	1566	362.641056022297	1
0	1568	362.740222688964	0
0	1570	364.67834063125	1
0	1572	364.777507297917	0
0	1574	366.646692268977	1
0	1576	366.745858935644	0
0	1578	366.877486555264	1
0	1580	366.976653221931	0
0	1582	367.550057505176	1
0	1584	367.649224171843	0
0	1586	368.308931413333	1
0	1588	368.40809808	0
0	1590	369.825568937882	1
0	1592	369.886488477638	2
0	1595	369.985655144305	0
0	1597	371.529684125718	1
0	1599	371.628850792385	0
0	1601	371.914558177696	1
0	1603	372.013724844363	0
0	1605	372.358929813523	1
0	1607	372.45809648019	0
0	1609	373.550256092801	1
0	1611	373.649422759468	0
0	1613	373.782807767122	1
0	1615	373.881974433789	0
0	1617	374.883814596132	1
0	1619	374.982981262799	0
0	1621	376.360529049317	1
0	1623	376.459695715984	0
0	1625	376.986202854211	1
0	1627	377.085369520878	0
0	1629	377.591186320977	1
0	1631	377.690352987644	0
0	1633	378.18910817955	1
0	1635	378.212234640154	2
0	1638	378.311401306821	0
0	1640	379.112767540765	1
0	1642	379.211934207432	0
0	1644	379.26811695836	1
0	1646	379.367283625027	0
0	1648	382.0682313376	1
0	1650	382.167398004267	0
0	1652	382.550991341408	1
0	1654	382.650158008075	0
0	1656	383.952970810616	1
0	1658	384.052137477283	0
0	1660	384.078029986542	1
0	1662	384.177196653209	0
0	1664	385.180271291499	1
0	1666	385.279437958166	0
0	1668	385.746620401445	1
0	1670	385.845787068112	0
0	1672	386.514123895765	1
0	1674	386.613290562432	0
0	1676	390.446613563098	1
0	1678	390.545780229765	0
0	1680	390.683918079953	1
0	1682	390.78308474662	0
0	1684	391.014139937509	1
0	1686	391.113306604176	0
0	1688	392.261914211187	1
0	1690	392.361080877854	0
0	1692	392.670849997557	1
0	1694	392.770016664224	0
0	1696	393.385188326296	1
0	1698	393.484354992963	0
0	1700	393.685291990589	1
0	1702	393.753031906764	2
0	1705	393.852198573431	0
0	1707	393.884829527978	1
0	1709	393.983996194645	0
0	1711	394.406162275313	1
0	1713	394.50532894198	0
0	1715	394.511165263836	1
0	1717	394.610331930503	0
0	1719	395.546547600184	1
0	1721	395.645714266851	0
0	1723	396.3388199759	1
0	1725	396.437986642567	0
0	1727	396.920670885026	1
0	1729	396.927003379785	2
0	1732	397.026170046452	0
0	1734	398.272133607873	1
0	1736	398.37130027454	0
0	1738	399.1652531251	1
0	1740	399.264419791767	0
0	1742	400.756635735222	1
0	1744	400.855802401889	0
0	1746	401.061057640411	1
0	1748	401.160224307078	0
0	1750	402.129541596839	1
0	1752	402.228708263506	0
0	1754	402.525318429704	1
0	1756	402.624485096371	0
0	1758	403.522304071395	1
0	1760	403.621470738062	0
0	1762	406.298009380313	1
0	1764	406.39717604698	0
0	1766	407.273732989714	1
0	1768	407.372899656381	0
0	1770	408.091373092648	1
0	1772	408.098107461508	2
0	1775	408.197274128175	0
0	1777	408.355793083429	1
0	1779	408.385621337057	2
0	1782	408.484788003724	0
0	1784	410.051038527365	1
0	1786	410.150205194032	0
0	1788	410.160056068475	1
0	1790	410.259222735142	0
0	1792	410.505550355849	1
0	1794	410.604717022516	0
0	1796	411.334583682109	1
0	1798	411.433750348776	0
0	1800	411.439521124242	1
0	1802	411.538687790909	0
0	1804	411.945534942941	1
0	1806	412.044701609608	0
0	1808	412.885010036959	1
0	1810	412.984176703626	0
0	1812	412.987312131766	1
0	1814	413.086478798433	0
0	1816	414.354276443615	1
0	1818	414.453443110282	0
0	1820	415.076436604784	1
0	1822	415.175603271451	0
0	1824	415.264928678866	1
0	1826	415.364095345533	0
0	1828	415.436351168076	1
0	1830	415.535517834743	0
0	1832	415.67386455278	1
0	1834	415.773031219447	0
0	1836	416.965965015232	1
0	1838	417.065131681899	0
0	1840	417.387289187616	1
0	1842	417.486455854283	0
0	1844	417.66675366262	1
0	1846	417.765920329287	0
0	1848	418.749488634157	1
0	1850	418.848655300824	0
0	1852	421.690845858918	1
0	1854	421.790012525585	0
0	1856	422.709571062858	1
0	1858	422.808737729525	0
0	1860	422.980304581583	1
0	1862	423.07947124825	0
0	1864	423.353778960918	1
0	1866	423.452945627585	0
0	1868	424.044912347466	1
0	1870	424.144079014133	0
0	1872	426.320020318821	1
0	1874	426.419186985488	0
0	1876	426.769916543215	1
0	1878	426.793907779288	2
0	1881	426.893074445955	0
0	1883	426.977887299958	1
0	1885	427.021630784848	2
0	1888	427.120797451515	0
0	1890	429.335429816774	1
0	1892	429.434596483441	0
0	1894	429.910776198362	1
0	1896	429.951422972239	2
0	1899	430.050589638906	0
0	1901	430.271057642855	1
0	1903	430.370224309522	0
0	1905	430.888088302419	1
0	1907	430.987254969086	0
0	1909	431.147996728347	1
0	1911	431.247163395014	0
0	1913	431.419066792247	1
0	1915	431.437641324792	2
0	1918	431.536807991459	0
0	1920	431.750488828716	1
0	1922	431.849655495383	0
0	1924	432.46708722391	1
0	1926	432.566253890577	0
0	1928	432.699587121932	1
0	1930	432.798753788599	0
0	1932	433.970138412838	1
0	1934	434.069305079505	0
0	1936	434.438799001193	1
0	1938	434.53796566786	0
0	1940	434.88608325083	1
0	1942	434.985249917497	0
0	1944	435.317679802047	1
0	1946	435.416846468714	0
0	1948	436.171468530378	1
0	1950	436.270635197045	0
0	1952	436.932734530434	1
0	1954	437.031901197101	0
0	1956	437.271940320523	1
0	1958	437.37110698719	0
0	1960	437.65561213952	1
0	1962	437.754778806187	0
0	1964	437.847154618913	1
0	1966	437.94632128558	0
0	1968	438.708259031886	1
0	1970	438.715907515399	2
0	1973	438.815074182066	0
0	1975	439.181958994096	1
0	1977	439.281125660763	0
0	1979	441.26787128594	1
0	1981	441.367037952607	0
0	1983	442.752112520641	1
0	1985	442.851279187308	0
0	1987	443.408917772095	1
0	1989	443.508084438762	0
0	1991	446.693696215954	1
0	1993	446.792862882621	0
0	1995	448.318740223476	1
0	1997	448.417906890143	0
0	1999	448.445334779308	1
0	2001	448.491013899384	2
0	2004	448.590180566051	0
0	2006	450.259481775843	1
0	2008	450.35864844251	0
0	2010	450.994087806949	1
0	2012	451.093254473616	0
0	2014	451.656470406299	1
0	2016	451.755637072966	0
0	2018	452.74578244918	1
0	2020	452.844949115847	0
0	2022	454.585276590824	1
0	2024	454.684443257491	0
0	2026	456.534326037896	1
0	2028	456.633492704563	0
0	2030	456.673320202743	1
0	2032	456.77248686941	0
0	2034	458.084520505537	1
0	2036	458.110771980603	2
0	2039	458.20993864727	0
0	2041	459.7563853326	1
0	2043	459.855551999267	0
0	2045	463.000162847475	1
0	2047	463.099329514142	0
0	2049	463.46188587429	1
0	2051	463.561052540957	0
0	2053	463.825000360179	1
0	2055	463.924167026846	0
0	2057	464.842659356717	1
0	2059	464.941826023384	0
0	2061	465.140183052524	1
0	2063	465.177451677458	2
0	2066	465.276618344125	0
0	2068	466.654017001956	1
0	2070	466.753183668623	0
0	2072	467.226886878543	1
0	2074	467.32605354521	0
0	2076	468.524780020038	1
0	2078	468.623946686705	0
0	2080	469.295970527016	1
0	2082	469.395137193683	0
0	2084	469.722677627224	1
0	2086	469.821844293891	0
0	2088	471.649465554225	1
0	2090	471.664341142464	2
0	2093	471.763507809131	0
0	2095	471.93513870655	1
0	2097	472.034305373217	0
0	2099	472.507543619478	1
0	2101	472.606710286145	0
0	2103	473.041735068515	1
0	2105	473.140901735182	0
0	2107	475.759770267175	1
0	2109	475.858936933842	0
0	2111	476.958510815722	1
0	2113	477.057677482389	0
0	2115	477.17898855169	1
0	2117	477.278155218357	0
0	2119	477.416525449222	1
0	2121	477.515692115889	0
0	2123	477.717928275575	1
0	2125	477.817094942242	0
0	2127	478.85700670459	1
0	2129	478.956173371257	0
0	2131	481.713209925872	1
0	2133	481.812376592539	0
0	2135	481.893860029377	1
0	2137	481.938012680391	2
0	2140	482.037179347058	0
0	2142	482.730014768371	1
0	2144	482.829181435038	0
0	2146	483.847063400313	1
0	2148	483.94623006698	0
0	2150	484.351959415437	1
0	2152	484.451126082104	0
0	2154	485.027947866701	1
0	2156	485.127114533368	0
0	2158	485.150468716759	1
0	2160	485.185288061247	2
0	2163	485.284454727914	0
0	2165	486.987781214513	1
0	2167	487.08694788118	0
0	2169	487.664524739849	1
0	2171	487.708618739228	2
0	2174	487.807785405895	0
0	2176	488.189459058254	1
0	2178	488.288625724921	0
0	2180	488.7225874887	1
0	2182	488.821754155367	0
0	2184	489.15759262128	1
0	2186	489.256759287947	0
0	2188	491.259869492072	1
0	2190	491.30592178223	2
0	2193	491.405088448897	0
0	2195	491.75291696996	1
0	2197	491.852083636627	0
0	2199	492.047413781355	1
0	2201	492.146580448022	0
0	2203	492.868998005887	1
0	2205	492.968164672554	0
0	2207	494.968194829303	1
0	2209	495.06736149597	0
0	2211	495.75658994504	1
0	2213	495.855756611707	0
0	2215	495.968044117467	1
0	2217	496.067210784134	0
0	2219	496.228034252292	1
0	2221	496.327200918959	0
0	2223	496.755782564664	1
0	2225	496.854949231331	0
0	2227	497.053028025206	1
0	2229	497.152194691873	0
0	2231	497.524969909149	1
0	2233	497.624136575816	0
0	2235	499.312739290829	1
0	2237	499.346879694077	2
0	2240	499.446046360744	0
0	2242	500.560638936803	1
0	2244	500.65980560347	0
0	2246	502.774922232967	1
0	2248	502.794363186988	2
0	2251	502.893529853655	0
0	2253	503.106933879423	1
0	2255	503.20610054609	0
0	2257	503.616810430519	1
0	2259	503.715977097186	0
0	2261	504.239648968533	1