version 3
run PureAlohaExperiment-4-20211207-20:09:55-303978
attr configname PureAlohaExperiment
attr datetime 20211207-20:09:55
attr datetimef 20211207-200955
attr experiment PureAlohaExperiment
attr inifile omnetpp.ini
attr iterationvars "$numHosts=10, $iaMean=3"
attr iterationvarsd numHosts=10/iaMean=3
attr iterationvarsf numHosts=10,iaMean=3-
attr measurement "$numHosts=10, $iaMean=3"
attr network Aloha
attr processid 303978
attr repetition 0
attr replication #0
attr resultdir results
attr runnumber 4
attr seedset 4
itervar iaMean 3
itervar numHosts 10
config cmdenv-redirect-output true
config description "Channel utilization in the function of packet generation frequency"
config repeat 2
config sim-time-limit 90min
config Aloha.numHosts 10
config Aloha.host[*].iaTime exponential(3s)
config network Aloha
config Aloha.numHosts 20
config Aloha.slotTime 0s
config Aloha.txRate 9.6kbps
config Aloha.host[*].pkLenBits 952b
config **.x "uniform(0m, 1000m)"
config **.y "uniform(0m, 1000m)"
config **.animationHoldTimeOnCollision 0s
config **.idleAnimationSpeed 1
config **.transmissionEdgeAnimationSpeed 1e-6
config **.midTransmissionAnimationSpeed 1e-1

vector 0 Aloha.server serverChannelState:vector(sum) ETV
attr enum IDLE=0,TRANSMISSION=1,COLLISION=2
attr recordingmode vector(sum)
attr source channelState
attr title "Channel state, sum"
vector 1 Aloha.server serverChannelState:vector(sum(mean+1)) ETV
attr enum IDLE=0,TRANSMISSION=1,COLLISION=2
attr recordingmode vector(sum(mean+1))
attr source channelState
attr title "Channel state, sum(mean+1)"
vector 2 Aloha.server serverChannelState:vector ETV
attr enum IDLE=0,TRANSMISSION=1,COLLISION=2
attr recordingmode vector
attr source channelState
attr title "Channel state"
vector 3 Aloha.host[0] radioState:vector ETV
attr enum IDLE=0,TRANSMIT=1
attr recordingmode vector
attr source state
attr title "Radio state"
vector 4 Aloha.host[1] radioState:vector ETV
attr enum IDLE=0,TRANSMIT=1
attr recordingmode vector
attr source state
attr title "Radio state"
vector 5 Aloha.host[2] radioState:vector ETV
attr enum IDLE=0,TRANSMIT=1
attr recordingmode vector
attr source state
attr title "Radio state"
vector 6 Aloha.host[3] radioState:vector ETV
attr enum IDLE=0,TRANSMIT=1
attr recordingmode vector
attr source state
attr title "Radio state"
vector 7 Aloha.host[4] radioState:vector ETV
attr enum IDLE=0,TRANSMIT=1
attr recordingmode vector
attr source state
attr title "Radio state"
vector 8 Aloha.host[5] radioState:vector ETV
attr enum IDLE=0,TRANSMIT=1
attr recordingmode vector
attr source state
attr title "Radio state"
vector 9 Aloha.host[6] radioState:vector ETV
attr enum IDLE=0,TRANSMIT=1
attr recordingmode vector
attr source state
attr title "Radio state"
vector 10 Aloha.host[7] radioState:vector ETV
attr enum IDLE=0,TRANSMIT=1
attr recordingmode vector
attr source state
attr title "Radio state"
vector 11 Aloha.host[8] radioState:vector ETV
attr enum IDLE=0,TRANSMIT=1
attr recordingmode vector
attr source state
attr title "Radio state"
vector 12 Aloha.host[9] radioState:vector ETV
attr enum IDLE=0,TRANSMIT=1
attr recordingmode vector
attr source state
attr title "Radio state"
0	0	0	0
0	0	0	0
0	2	0.536817215565	1
0	4	0.635983882232	1
0	6	0.660765011613	2
0	8	0.663064021128	4
0	11	0.762230687795	4
0	13	1.345884973032	5
0	15	1.445051639699	5
0	17	1.491590153599	6
0	19	1.590756820266	6
0	21	1.726251220357	7
0	23	1.825417887024	7
0	25	2.228304320047	8
0	27	2.327470986714	8
0	29	2.374727459555	9
0	31	2.473894126222	9
0	33	2.548396217117	10
0	35	2.647562883784	10
0	37	2.728945095206	11
0	39	2.780025148148	13
0	42	2.879191814815	13
0	44	2.885735882048	14
0	46	2.984902548715	14
0	48	3.106682242167	15
0	50	3.205848908834	15
0	52	3.604246180655	16
0	54	3.703412847322	16
0	56	4.366446113414	17
0	58	4.465612780081	17
0	60	4.923169117529	18
0	62	5.013109342081	20
0	65	5.112276008748	20
0	67	5.682727895142	21
0	69	5.781894561809	21
0	71	5.963176215554	22
0	73	6.062342882221	22
0	75	6.296060765609	23
0	77	6.395227432276	23
0	79	6.599131140553	24
0	81	6.69829780722	24
0	83	6.795999134878	25
0	85	6.895165801545	25
0	87	7.472904866247	26
0	89	7.475414878954	28
0	91	7.528583045901	30
0	95	7.627749712568	30
0	97	7.835479269097	31
0	99	7.934645935764	31
0	101	8.123739750226	32
0	103	8.222906416893	32
0	105	9.452745633804	33
0	107	9.551912300471	33
0	109	9.797902466894	34
0	111	9.897069133561	34
0	113	10.501843019913	35
0	115	10.60100968658	35
0	117	11.593544139723	36
0	119	11.69271080639	36
0	121	11.743022019331	37
0	123	11.805646165242	39
0	126	11.904812831909	39
0	128	12.148818562203	40
0	130	12.24798522887	40
0	132	12.295183009034	41
0	134	12.394349675701	41
0	136	12.404888852135	42
0	138	12.504055518802	42
0	140	12.61329504002	43
0	142	12.712461706687	43
0	144	12.737867588714	44
0	146	12.837034255381	44
0	148	13.155243958251	45
0	150	13.229183595512	47
0	153	13.328350262179	47
0	155	13.499282807487	48
0	157	13.598449474154	48
0	159	13.60170424287	49
0	161	13.616311651432	51
0	164	13.715478318099	51
0	166	14.040003738476	52
0	168	14.11733990867	54
0	171	14.216506575337	54
0	173	14.298861205164	55
0	175	14.398027871831	55
0	177	15.22544096982	56
0	179	15.27907226464	58
0	182	15.378238931307	58
0	184	15.618120681927	59
0	186	15.717287348594	59
0	188	15.756469992729	60
0	190	15.828009578391	62
0	193	15.927176245058	62
0	195	16.728753029416	63
0	197	16.760583274431	65
0	199	16.790018822608	67
0	203	16.889185489275	67
0	205	17.234304141794	68
0	207	17.252289142865	70
0	209	17.328846423555	72
0	212	17.337301054393	74
0	216	17.43646772106	74
0	218	17.584990046787	75
0	220	17.684156713454	75
0	222	17.925071976557	76
0	224	18.024238643224	76
0	226	18.472404016661	77
0	228	18.571570683328	77
0	230	18.736551254494	78
0	232	18.835717921161	78
0	234	18.840788938437	79
0	236	18.860071437185	81
0	238	18.861005439865	83
0	242	18.960172106532	83
0	244	19.219734774885	84
0	246	19.318901441552	84
0	248	19.778835251231	85
0	250	19.817756658972	87
0	253	19.916166558743	89
0	256	19.932583611731	91
0	258	20.013915019771	93
0	262	20.062621203043	95
0	265	20.16178786971	95
0	267	20.168802169616	96
0	269	20.193608729466	98
0	272	20.292775396133	98
0	274	20.969905321431	99
0	276	21.069071988098	99
0	278	21.235119130094	100
0	280	21.334285796761	100
0	282	21.387468624882	101
0	284	21.465349099964	103
0	287	21.564515766631	103
0	289	21.706596935456	104
0	291	21.738934120816	106
0	293	21.800692213135	108
0	297	21.899858879802	108
0	299	22.053037733898	109
0	301	22.152204400565	109
0	303	22.410076374484	110
0	305	22.509243041151	110
0	307	22.819936527911	111
0	309	22.919103194578	111
0	311	23.31263357559	112
0	313	23.411800242257	112
0	315	23.552870667893	113
0	317	23.65203733456	113
0	319	24.057063549999	114
0	321	24.156230216666	114
0	323	24.205205019681	115
0	325	24.304371686348	115
0	327	25.289291628605	116
0	329	25.309255881618	118
0	332	25.408422548285	118
0	334	25.773783634861	119
0	336	25.872950301528	119
0	338	26.73033070666	120
0	340	26.791071198356	122
0	343	26.890237865023	122
0	345	27.429650770583	123
0	347	27.52881743725	123
0	349	27.898002003622	124
0	351	27.984208476543	126
0	354	28.08337514321	126
0	356	28.096934158084	127
0	358	28.196100824751	127
0	360	28.730991972226	128
0	362	28.830158638893	128
0	364	28.945649533025	129
0	366	29.044816199692	129
0	368	29.417013431974	130
0	370	29.516180098641	130
0	372	29.921048186041	131
0	374	30.020214852708	131
0	376	30.544037771781	132
0	378	30.643204438448	132
0	380	30.968787622139	133
0	382	31.067954288806	133
0	384	31.333338667118	134
0	386	31.432505333785	134
0	388	31.682582465593	135
0	390	31.78174913226	135
0	392	32.439614623305	136
0	394	32.538781289972	136
0	396	32.675807011324	137
0	398	32.736920987889	139
0	401	32.796639284509	141
0	404	32.895805951176	141
0	406	33.117926037215	142
0	408	33.136205342377	144
0	411	33.235372009044	144
0	413	33.619889632023	145
0	415	33.709886500744	147
0	418	33.797690395784	149
0	421	33.877775753375	151
0	424	33.9526095225	153
0	426	33.96473992843	155
0	430	34.063906595097	155
0	432	34.214206967413	156
0	434	34.251001401196	158
0	436	34.265750417557	160
0	440	34.364917084224	160
0	442	34.510190607534	161
0	444	34.609357274201	161
0	446	34.898250966792	162
0	448	34.964969047598	164
0	451	35.024340586965	166
0	454	35.123507253632	166
0	456	35.978227261783	167
0	458	36.07739392845	167
0	460	36.680241882352	168
0	462	36.752660702752	170
0	465	36.851827369419	170
0	467	36.852761333077	171
0	469	36.951927999744	171
0	471	37.017495409437	172
0	473	37.116662076104	172
0	475	37.265916494577	173
0	477	37.365083161244	173
0	479	37.43341523455	174
0	481	37.532581901217	174
0	483	37.685953015898	175
0	485	37.785119682565	175
0	487	37.881570331687	176
0	489	37.924267051738	178
0	492	38.023433718405	178
0	494	38.150171701402	179
0	496	38.249338368069	179
0	498	38.654508777445	180
0	500	38.753675444112	180
0	502	38.885350377875	181
0	504	38.984517044542	181
0	506	39.57120865924	182
0	508	39.670375325907	182
0	510	39.986810253817	183
0	512	40.084492509704	185
0	515	40.183659176371	185
0	517	40.418016202678	186
0	519	40.517182869345	186
0	521	41.231753943602	187
0	523	41.330920610269	187
0	525	41.436996600129	188
0	527	41.527900627725	190
0	530	41.627067294392	190
0	532	42.523937933605	191
0	534	42.623104600272	191
0	536	42.957943049429	192
0	538	43.057109716096	192
0	540	43.395387889651	193
0	542	43.494554556318	193
0	544	44.132059499079	194
0	546	44.231226165746	194
0	548	44.764646257298	195
0	550	44.863812923965	195
0	552	45.137174114591	196
0	554	45.236340781258	196
0	556	45.519633963168	197
0	558	45.618800629835	197
0	560	45.654045175422	198
0	562	45.753211842089	198
0	564	45.966835146028	199
0	566	46.044498857526	201
0	569	46.101867277771	203
0	572	46.201033944438	203
0	574	46.210359410199	204
0	576	46.309526076866	204
0	578	46.520638110832	205
0	580	46.619804777499	205
0	582	46.704516877157	206
0	584	46.803683543824	206
0	586	46.895410855226	207
0	588	46.994577521893	207
0	590	47.301947364843	208
0	592	47.40111403151	208
0	594	47.426282390981	209
0	596	47.525449057648	209
0	598	47.623134465119	210
0	600	47.722301131786	210
0	602	47.723425840339	211
0	604	47.822592507006	211
0	606	47.913470187617	212
0	608	48.012636854284	212
0	610	48.162000640929	213
0	612	48.261167307596	213
0	614	48.882005893731	214
0	616	48.981172560398	214
0	618	49.319190642026	215
0	620	49.418357308693	215
0	622	49.444958303382	216
0	624	49.544124970049	216
0	626	50.935503516483	217
0	628	51.03467018315	217
0	630	51.140539171355	218
0	632	51.155483284698	220
0	635	51.254649951365	220
0	637	51.334985355472	221
0	639	51.346032318218	223
0	642	51.445198984885	223
0	644	51.681469738522	224
0	646	51.780636405189	224
0	648	51.792227232587	225
0	650	51.891393899254	225
0	652	51.941726269853	226
0	654	52.005722880651	228
0	657	52.104889547318	228
0	659	52.225745467485	229
0	661	52.324912134152	229
0	663	52.333704793242	230
0	665	52.432871459909	230
0	667	52.539000038435	231
0	669	52.638166705102	231
0	671	52.685076665856	232
0	673	52.784243332523	232
0	675	52.850145162139	233
0	677	52.949311828806	233
0	679	53.044789159586	234
0	681	53.074388325098	236
0	684	53.173554991765	236
0	686	54.012392421318	237
0	688	54.111559087985	237
0	690	54.521972432513	238
0	692	54.62113909918	238
0	694	55.268927193024	239
0	696	55.363931720785	241
0	699	55.463098387452	241
0	701	57.105461260465	242
0	703	57.204627927132	242
0	705	57.472393011743	243
0	707	57.517562831788	245
0	710	57.583345490446	247
0	713	57.682512157113	247
0	715	57.697286761926	248
0	717	57.796453428593	248
0	719	57.798783659956	249
0	721	57.897950326623	249
0	723	58.369534396924	250
0	725	58.468701063591	250
0	727	58.485236619718	251
0	729	58.584403286385	251
0	731	58.750109569074	252
0	733	58.849276235741	252
0	735	58.865918700526	253
0	737	58.872699222388	255
0	739	58.919831450406	257
0	743	59.018998117073	257
0	745	59.544039468657	258
0	747	59.643206135324	258
0	749	59.692357879668	259
0	751	59.791524546335	259
0	753	60.614588137671	260
0	755	60.635325875514	262
0	758	60.734492542181	262
0	760	61.21913001397	263
0	762	61.249585356683	265
0	765	61.34875202335	265
0	767	61.632151315073	266
0	769	61.73131798174	266
0	771	61.890978527384	267
0	773	61.990145194051	267
0	775	62.642019979622	268
0	777	62.741186646289	268
0	779	63.124750176423	269
0	781	63.162763197926	271
0	784	63.242893287718	273
0	787	63.342059954385	273
0	789	63.373504185924	274
0	791	63.472670852591	274
0	793	63.717674353802	275
0	795	63.783943280083	277
0	798	63.88310994675	277
0	800	64.600533651494	278
0	802	64.620399350517	280
0	805	64.719566017184	280
0	807	64.812374663531	281
0	809	64.911541330198	281
0	811	65.176010787962	282
0	813	65.275177454629	282
0	815	65.397928206609	283
0	817	65.497094873276	283
0	819	65.696887499264	284
0	821	65.796054165931	284
0	823	65.84435473976	285
0	825	65.943521406427	285
0	827	67.276824940756	286
0	829	67.375991607423	286
0	831	67.58093487646	287
0	833	67.66558866909	289
0	836	67.764755335757	289
0	838	67.868149623375	290
0	840	67.967316290042	290
0	842	68.571441427857	291
0	844	68.670608094524	291
0	846	68.753908561021	292
0	848	68.785546885834	294
0	851	68.884713552501	294
0	853	68.903652163839	295
0	855	69.002818830506	295
0	857	69.350137200651	296
0	859	69.449303867318	296
0	861	69.727113657138	297
0	863	69.826280323805	297
0	865	70.303711739654	298
0	867	70.402878406321	298
0	869	71.181238856579	299
0	871	71.280405523246	299
0	873	71.573447139321	300
0	875	71.672613805988	300
0	877	71.884924395901	301
0	879	71.929219548037	303
0	882	72.028386214704	303
0	884	72.149524845017	304
0	886	72.248691511684	304
0	888	72.418286355913	305
0	890	72.51745302258	305
0	892	72.626919962383	306
0	894	72.72608662905	306
0	896	72.744166475036	307
0	898	72.843333141703	307
0	900	72.862365204507	308
0	902	72.961531871174	308
0	904	74.142534795482	309
0	906	74.16448704232	311
0	909	74.263653708987	311
0	911	74.555543048063	312
0	913	74.65470971473	312
0	915	74.992099518687	313
0	917	75.009330131725	315
0	920	75.108496798392	315
0	922	75.586369980287	316
0	924	75.685536646954	316
0	926	75.746124087201	317
0	928	75.806389317482	319
0	930	75.812936005608	321
0	934	75.912102672275	321
0	936	76.127684081918	322
0	938	76.226850748585	322
0	940	76.426285853291	323
0	942	76.525452519958	323
0	944	77.416120117764	324
0	946	77.48660133749	326
0	949	77.585768004157	326
0	951	77.651218897423	327
0	953	77.75038556409	327
0	955	77.764746922679	328
0	957	77.836995783158	330
0	960	77.936162449825	330
0	962	79.690883017057	331
0	964	79.768591178328	333
0	967	79.867757844995	333
0	969	80.475437813837	334
0	971	80.574604480504	334
0	973	80.995785124468	335
0	975	81.094951791135	335
0	977	81.173489269323	336
0	979	81.222291187577	338
0	982	81.321457854244	338
0	984	81.544567629378	339
0	986	81.643734296045	339
0	988	81.687658682971	340
0	990	81.786825349638	340
0	992	82.198443247143	341
0	994	82.29760991381	341
0	996	82.302665950388	342
0	998	82.401832617055	342
0	1000	82.853477198933	343
0	1002	82.9526438656	343
0	1004	83.182160998139	344
0	1006	83.281327664806	344
0	1008	83.332910368872	345
0	1010	83.432077035539	345
0	1012	83.866296459829	346
0	1014	83.965463126496	346
0	1016	84.06588802845	347
0	1018	84.165054695117	347
0	1020	84.286428934924	348
0	1022	84.385595601591	348
0	1024	84.421932738911	349
0	1026	84.521099405578	349
0	1028	85.244512877098	350
0	1030	85.343679543765	350
0	1032	85.367909259876	351
0	1034	85.389088946818	353
0	1037	85.488255613485	353
0	1039	85.725736895929	354
0	1041	85.745965175662	356
0	1044	85.845131842329	356
0	1046	85.961323757156	357
0	1048	86.060490423823	357
0	1050	86.260610642061	358
0	1052	86.359777308728	358
0	1054	86.718805801153	359
0	1056	86.81797246782	359
0	1058	88.170972066601	360
0	1060	88.206791858111	362
0	1063	88.305958524778	362
0	1065	89.050717379482	363
0	1067	89.149884046149	363
0	1069	89.552170423991	364
0	1071	89.651337090658	364
0	1073	89.904453382256	365
0	1075	90.003620048923	365
0	1077	90.251863945237	366
0	1079	90.306416066184	368
0	1081	90.314357098876	370
0	1085	90.413523765543	370
0	1087	90.696111845351	371
0	1089	90.795278512018	371
0	1091	91.008457781263	372
0	1093	91.10762444793	372
0	1095	91.1305201331	373
0	1097	91.229686799767	373
0	1099	91.415216700092	374
0	1101	91.425826564165	376
0	1103	91.452691987739	378
0	1107	91.551858654406	378
0	1109	91.719740565635	379
0	1111	91.818907232302	379
0	1113	92.15032432699	380
0	1115	92.249490993657	380
0	1117	92.30155374159	381
0	1119	92.400720408257	381
0	1121	92.682752578982	382
0	1123	92.781919245649	382
0	1125	93.17143743818	383
0	1127	93.270604104847	383
0	1129	94.104153936091	384
0	1131	94.203320602758	384
0	1133	94.258252485103	385
0	1135	94.35741915177	385
0	1137	95.125374775206	386
0	1139	95.224541441873	386
0	1141	95.497322364042	387
0	1143	95.596489030709	387
0	1145	95.920019638469	388
0	1147	96.019186305136	388
0	1149	96.305121647942	389
0	1151	96.36222754363	391
0	1154	96.461394210297	391
0	1156	98.107520698559	392
0	1158	98.206687365226	392
0	1160	98.507220170144	393
0	1162	98.606386836811	393
0	1164	98.904506588134	394
0	1166	99.003673254801	394
0	1168	99.147060913911	395
0	1170	99.246227580578	395
0	1172	99.499357565464	396
0	1174	99.598524232131	396
0	1176	99.765416920866	397
0	1178	99.826202606685	399
0	1181	99.915760178346	401
0	1184	100.00905155811	403
0	1187	100.108218224777	403
0	1189	100.158081178686	404
0	1191	100.257247845353	404
0	1193	100.751467094518	405
0	1195	100.850633761185	405
0	1197	100.990969328687	406
0	1199	101.090135995354	406
0	1201	101.157182839862	407
0	1203	101.256349506529	407
0	1205	101.841606721444	408
0	1207	101.940773388111	408
0	1209	101.978498136393	409
0	1211	102.07766480306	409
0	1213	102.90339050547	410
0	1215	103.002557172137	410
0	1217	103.153399320048	411
0	1219	103.171852265137	413
0	1222	103.271018931804	413
0	1224	103.31299766416	414
0	1226	103.412164330827	414
0	1228	103.737577845263	415
0	1230	103.83674451193	415
0	1232	103.892947316253	416
0	1234	103.99211398292	416
0	1236	104.214949936468	417
0	1238	104.288528941981	419
0	1241	104.387695608648	419
0	1243	104.393812432129	420
0	1245	104.424043730085	422
0	1248	104.523210396752	422
0	1250	104.583657827637	423
0	1252	104.682824494304	423
0	1254	105.173754455017	424
0	1256	105.272921121684	424
0	1258	105.314606106691	425
0	1260	105.413772773358	425
0	1262	105.713844355231	426
0	1264	105.725760631707	428
0	1267	105.824927298374	428
0	1269	106.776221992885	429
0	1271	106.875388659552	429
0	1273	106.997978262539	430
0	1275	107.097144929206	430
0	1277	107.152098251197	431
0	1279	107.251264917864	431
0	1281	107.591965625136	432
0	1283	107.691132291803	432
0	1285	107.864956525031	433
0	1287	107.964123191698	433
0	1289	108.541256479868	434
0	1291	108.640423146535	434
0	1293	108.674963058815	435
0	1295	108.774129725482	435
0	1297	109.033183931026	436
0	1299	109.132350597693	436
0	1301	109.372330273682	437
0	1303	109.455226957979	439
0	1306	109.554393624646	439
0	1308	109.854317541329	440
0	1310	109.953484207996	440
0	1312	110.032866266161	441
0	1314	110.132032932828	441
0	1316	110.487143134841	442
0	1318	110.52993157918	444
0	1321	110.629098245847	444
0	1323	111.359772013218	445
0	1325	111.362197028268	447
0	1328	111.461363694935	447
0	1330	111.721829182392	448
0	1332	111.820995849059	448
0	1334	112.07583548016	449
0	1336	112.175002146827	449
0	1338	113.110987234965	450
0	1340	113.210153901632	450
0	1342	113.747658227777	451
0	1344	113.846824894444	451
0	1346	113.861754488616	452
0	1348	113.960921155283	452
0	1350	114.160562480934	453
0	1352	114.259729147601	453
0	1354	114.687353905184	454
0	1356	114.712354585004	456
0	1358	114.78023324059	458
0	1362	114.879399907257	458
0	1364	115.107142758389	459
0	1366	115.206309425056	459
0	1368	115.399068042175	460
0	1370	115.476678232253	462
0	1373	115.57584489892	462
0	1375	115.684521237714	463
0	1377	115.783687904381	463
0	1379	116.117239955846	464
0	1381	116.216406622513	464
0	1383	116.76663704721	465
0	1385	116.865803713877	465
0	1387	117.000552646217	466
0	1389	117.003408595109	468
0	1391	117.059646742992	470
0	1395	117.158813409659	470
0	1397	117.26129815857	471
0	1399	117.360464825237	471
0	1401	117.769591851377	472
0	1403	117.858788699649	474
0	1406	117.957955366316	474
0	1408	118.110019913195	475
0	1410	118.209186579862	475
0	1412	118.306504820052	476
0	1414	118.405671486719	476
0	1416	119.11178375909	477
0	1418	119.210950425757	477
0	1420	119.708085701559	478
0	1422	119.807252368226	478
0	1424	119.822387696904	479
0	1426	119.921554363571	479
0	1428	120.064743516363	480
0	1430	120.156585016107	482
0	1433	120.255751682774	482
0	1435	120.316078885976	483
0	1437	120.415245552643	483
0	1439	121.032956260607	484
0	1441	121.118735271258	486
0	1444	121.217901937925	486
0	1446	121.329726200969	487
0	1448	121.428892867636	487
0	1450	121.934651855887	488
0	1452	122.033818522554	488
0	1454	122.087353868722	489
0	1456	122.186520535389	489
0	1458	122.866338092172	490
0	1460	122.965504758839	490
0	1462	123.029866079704	491
0	1464	123.042694441948	493
0	1467	123.141861108615	493
0	1469	123.58164218835	494
0	1471	123.623756659132	496
0	1474	123.722923325799	496
0	1476	123.87543681709	497
0	1478	123.91341122678	499
0	1481	123.97502438697	501
0	1484	124.034704606182	503
0	1487	124.133871272849	503
0	1489	124.745590742531	504
0	1491	124.844757409198	504
0	1493	124.923370947182	505
0	1495	125.021479571606	507
0	1498	125.120646238273	507
0	1500	125.277588044063	508
0	1502	125.36537543388	510
0	1504	125.369454553032	512
0	1508	125.468621219699	512
0	1510	125.66164022366	513
0	1512	125.728311754376	515
0	1515	125.827478421043	515
0	1517	126.094580480594	516
0	1519	126.193747147261	516
0	1521	126.386179479602	517
0	1523	126.478720419487	519
0	1526	126.513120448798	521
0	1529	126.612287115465	521
0	1531	127.508214034014	522
0	1533	127.524929210687	524
0	1536	127.624095877354	524
0	1538	127.71786527956	525
0	1540	127.817031946227	525
0	1542	128.211895852417	526
0	1544	128.22118169735	528
0	1547	128.320348364017	528
0	1549	128.723489576564	529
0	1551	128.822656243231	529
0	1553	129.14057245384	530
0	1555	129.239739120507	530
0	1557	131.380694235516	531
0	1559	131.479860902183	531
0	1561	131.88231339849	532
0	1563	131.981480065157	532
0	1565	132.321457167989	533
0	1567	132.420623834656	533
0	1569	132.569203537892	534
0	1571	132.668370204559	534
0	1573	133.19887372246	535
0	1575	133.298040389127	535
0	1577	133.325855562218	536
0	1579	133.425022228885	536
0	1581	133.971962969264	537
0	1583	134.071129635931	537
0	1585	134.390582483554	538
0	1587	134.489749150221	538
0	1589	134.640362110714	539
0	1591	134.739528777381	539
0	1593	135.084551903932	540
0	1595	135.095454808482	542
0	1598	135.194621475149	542
0	1600	135.549351729764	543
0	1602	135.551902318067	545
0	1605	135.651068984734	545
0	1607	136.428692581818	546
0	1609	136.527859248485	546
0	1611	136.660518131076	547
0	1613	136.759684797743	547
0	1615	136.907270608701	548
0	1617	137.006437275368	548
0	1619	137.591979958196	549
0	1621	137.691146624863	549
0	1623	137.989673673292	550
0	1625	138.088840339959	550
0	1627	138.4742108931	551
0	1629	138.481864359568	553
0	1632	138.580708069014	555
0	1635	138.679874735681	555
0	1637	138.994319954754	556
0	1639	139.093486621421	556
0	1641	139.110654861934	557
0	1643	139.209821528601	557
0	1645	139.372362098048	558
0	1647	139.403651198048	560
0	1650	139.494055320812	562
0	1653	139.593221987479	562
0	1655	140.157376915766	563
0	1657	140.256543582433	563
0	1659	140.270388280669	564
0	1661	140.278275881949	566
0	1663	140.361728932817	568
0	1665	140.366914445502	570
0	1670	140.466081112169	570
0	1672	140.501092535803	571
0	1674	140.60025920247	571
0	1676	140.832530186528	572
0	1678	140.931696853195	572
0	1680	141.044702222283	573
0	1682	141.074339651689	575
0	1685	141.173506318356	575
0	1687	141.668550465984	576
0	1689	141.681046400261	578
0	1692	141.780213066928	578
0	1694	142.071014389695	579
0	1696	142.151848123698	581
0	1699	142.251014790365	581
0	1701	142.321765013032	582
0	1703	142.420931679699	582
0	1705	142.476989146802	583
0	1707	142.576155813469	583
0	1709	142.597783322902	584
0	1711	142.679918690446	586
0	1714	142.779085357113	586
0	1716	143.112519009513	587
0	1718	143.207650667286	589
0	1721	143.282036493335	591
0	1724	143.381203160002	591
0	1726	143.657478988194	592
0	1728	143.712373392265	594
0	1731	143.811540058932	594
0	1733	144.800626082964	595
0	1735	144.899792749631	595
0	1737	144.915242290571	596
0	1739	145.014408957238	596
0	1741	145.459490647408	597
0	1743	145.558657314075	597
0	1745	145.843814013764	598
0	1747	145.934562507367	600
0	1750	146.033729174034	600
0	1752	146.567950095913	601
0	1754	146.66711676258	601
0	1756	146.685382895151	602
0	1758	146.720184372657	604
0	1761	146.819351039324	604
0	1763	147.008536040935	605
0	1765	147.039140452665	607
0	1768	147.138307119332	607
0	1770	148.154006208105	608
0	1772	148.253172874772	608
0	1774	148.576179255053	609
0	1776	148.592551292798	611
0	1779	148.691717959465	611
0	1781	149.035115659114	612
0	1783	149.081833291549	614
0	1786	149.180999958216	614
0	1788	149.226141795509	615
0	1790	149.325308462176	615
0	1792	150.232702324847	616
0	1794	150.331868991514	616
0	1796	150.368037019568	617
0	1798	150.467203686235	617
0	1800	150.582631624034	618
0	1802	150.681798290701	618
0	1804	150.808079868779	619
0	1806	150.907246535446	619
0	1808	151.254230281745	620
0	1810	151.353396948412	620
0	1812	151.650276705077	621
0	1814	151.749443371744	621
0	1816	151.783727401598	622
0	1818	151.784565059223	624
0	1820	151.868106349175	626
0	1824	151.967273015842	626
0	1826	152.030609613988	627
0	1828	152.129776280655	627
0	1830	152.663130678035	628
0	1832	152.762297344702	628
0	1834	153.405998719505	629
0	1836	153.505165386172	629
0	1838	153.533720629454	630
0	1840	153.632887296121	630
0	1842	153.795246721085	631
0	1844	153.894413387752	631
0	1846	153.95909521505	632
0	1848	153.980859710487	634
0	1850	153.999898810506	636
0	1854	154.099065477173	636
0	1856	154.150375194834	637
0	1858	154.249541861501	637
0	1860	154.5750875393	638
0	1862	154.674254205967	638
0	1864	155.431376846752	639
0	1866	155.530543513419	639
0	1868	156.017833945809	640
0	1870	156.066325436739	642
0	1873	156.165492103406	642
0	1875	156.595731254297	643
0	1877	156.694897920964	643
0	1879	156.710658633197	644
0	1881	156.781022618782	646
0	1884	156.831383538732	648
0	1887	156.930550205399	648
0	1889	157.094578798499	649
0	1891	157.193745465166	649
0	1893	157.563280780719	650
0	1895	157.662447447386	650
0	1897	157.874792159863	651
0	1899	157.957428794106	653
0	1902	158.056595460773	653
0	1904	158.477852901497	654
0	1906	158.552491693026	656
0	1909	158.588660035307	658
0	1912	158.687826701974	658
0	1914	158.771838605953	659
0	1916	158.87100527262	659
0	1918	159.163963262239	660
0	1920	159.263129928906	660
0	1922	159.373676480321	661
0	1924	159.472843146988	661
0	1926	159.602147450665	662
0	1928	159.701314117332	662
0	1930	159.714403562768	663
0	1932	159.813570229435	663
0	1934	160.000509832218	664
0	1936	160.099676498885	664
0	1938	160.23348622624	665
0	1940	160.332652892907	665
0	1942	160.624624489098	666
0	1944	160.723791155765	666
0	1946	160.830406320306	667
0	1948	160.929572986973	667
0	1950	161.06710014726	668
0	1952	161.166266813927	668
0	1954	161.912682599137	669
0	1956	161.993641277798	671
0	1959	162.092807944465	671
0	1961	162.127092040058	672
0	1963	162.226258706725	672
0	1965	162.397300044315	673
0	1967	162.496466710982	673
0	1969	162.579883895573	674
0	1971	162.67905056224	674
0	1973	164.078321752783	675
0	1975	164.118353490052	677
0	1978	164.217520156719	677
0	1980	164.345845774149	678
0	1982	164.445012440816	678
0	1984	164.545867287959	679
0	1986	164.645033954626	679
0	1988	164.850164773386	680
0	1990	164.949331440053	680
0	1992	165.644987731758	681
0	1994	165.744154398425	681
0	1996	166.28708346283	682
0	1998	166.386250129497	682
0	2000	166.495713227016	683
0	2002	166.545082674457	685
0	2005	166.644249341124	685
0	2007	166.821410425617	686
0	2009	166.920577092284	686
0	2011	167.210961380473	687
0	2013	167.31012804714	687
0	2015	167.420816206321	688
0	2017	167.519982872988	688
0	2019	167.613143585805	689
0	2021	167.700528530435	691
0	2024	167.799695197102	691
0	2026	167.907644847952	692
0	2028	168.006811514619	692
0	2030	168.450647501563	693
0	2032	168.54981416823	693
0	2034	168.709367741639	694
0	2036	168.808534408306	694
0	2038	168.944300166648	695
0	2040	169.043466833315	695
0	2042	170.079070330051	696
0	2044	170.178236996718	696
0	2046	170.216936473086	697
0	2048	170.316103139753	697
0	2050	171.315986688588	698
0	2052	171.415153355255	698
0	2054	171.728567072279	699
0	2056	171.827733738946	699
0	2058	171.903828130479	700
0	2060	172.002994797146	700
0	2062	172.260417506664	701
0	2064	172.359584173331	701
0	2066	172.754379374857	702
0	2068	172.853546041524	702
0	2070	172.982186330676	703
0	2072	173.081352997343	703
0	2074	173.707037463858	704
0	2076	173.806204130525	704
0	2078	174.167142383952	705
0	2080	174.266309050619	705
0	2082	174.284165381946	706
0	2084	174.383332048613	706
0	2086	174.535080400816	707
0	2088	174.634247067483	707
0	2090	175.014217884591	708
0	2092	175.113384551258	708
0	2094	175.764537846912	709
0	2096	175.863704513579	709
0	2098	175.957293417816	710
0	2100	176.056460084483	710
0	2102	176.183881249843	711
0	2104	176.28304791651	711
0	2106	176.287506270345	712
0	2108	176.356522084834	714
0	2111	176.455688751501	714
0	2113	176.736299192215	715
0	2115	176.835465858882	715
0	2117	177.178914785996	716
0	2119	177.278081452663	716
0	2121	177.456456117628	717
0	2123	177.555622784295	717
0	2125	177.631214813888	718
0	2127	177.730381480555	718
0	2129	178.100996884969	719
0	2131	178.172381199499	721
0	2134	178.271547866166	721
0	2136	178.374362280925	722
0	2138	178.420360725315	724
0	2141	178.519527391982	724
0	2143	178.642685347619	725
0	2145	178.741852014286	725
0	2147	179.154358601903	726
0	2149	179.25352526857	726
0	2151	179.458707555982	727
0	2153	179.557874222649	727
0	2155	179.573644186487	728
0	2157	179.672810853154	728
0	2159	180.463204981927	729
0	2161	180.562371648594	729
0	2163	180.783553761222	730