version 3
run Fifo1-0-20200304-18:05:59-194640
attr configname Fifo1
attr datetime 20200304-18:05:59
attr experiment Fifo1
attr inifile omnetpp.ini
attr iterationvars ""
attr iterationvarsf ""
attr measurement ""
attr network FifoNet
attr processid 194640
attr repetition 0
attr replication #0
attr resultdir results
attr runnumber 0
attr seedset 0
config cmdenv-redirect-output true
config sim-time-limit 1000s
config description "low job arrival rate"
config **.gen.sendIaTime exponential(0.2s)
config **.fifo.serviceTime 0.01s
config network FifoNet
config sim-time-limit 100h
config cpu-time-limit 300s

vector 0 FifoNet.fifo qlen:vector ETV
attr interpolationmode sample-hold
attr title "queue length, vector"
vector 1 FifoNet.fifo queueingTime:vector ETV
attr interpolationmode none
attr title "queueing time at dequeue, vector"
attr unit s
vector 2 FifoNet.sink lifetime:vector ETV
attr interpolationmode none
attr title "lifetime of arrived jobs, vector"
attr unit s
0	0	0	0
0	132	6.682640977671	1
0	133	6.688555859991	0
0	276	14.403770617499	1
0	277	14.409976903659	0
0	408	20.199118850391	1
0	409	20.201282219108	0
0	536	26.97475495706	1
0	537	26.982022041374	0
0	600	31.295333195709	1
0	601	31.30129517008	0
0	604	31.303328455521	1
0	605	31.31129517008	0
0	728	37.220408475919	1
0	729	37.228528325786	0
0	780	39.280300988636	1
0	781	39.286238496877	0
0	796	39.762787140823	1
0	797	39.771845832725	0
0	1012	51.943922012465	1
0	1013	51.950046056195	0
0	1096	54.760288071829	1
0	1097	54.763447388157	0
0	1216	62.65249043407	1
0	1217	62.654833851493	0
0	1272	64.908434802577	1
0	1273	64.911677445467	0
0	1320	67.800444652715	1
0	1321	67.807091099517	0
0	1332	68.24258260843	1
0	1333	68.250225962046	0
0	1388	70.32163474181	1
0	1389	70.327895647726	0
0	1436	73.072583219456	1
0	1437	73.076111858527	0
0	1636	83.314638963641	1
0	1637	83.319641292978	0
0	1716	87.748366202212	1
0	1717	87.75419275849	0
0	1768	90.318858939118	1
0	1769	90.328847868739	0
0	1868	95.879385854777	1
0	1869	95.884186305738	0
0	2016	101.352388581314	1
0	2017	101.356203323002	0
0	2064	103.632801483496	1
0	2065	103.633463934767	0
0	2100	104.788929303131	1
0	2101	104.795616084247	0
0	2112	105.483525815557	1
0	2113	105.491669210681	0
0	2268	115.603032556815	1
0	2269	115.610367507849	0
0	2312	119.342757955203	1
0	2313	119.351946690939	0
0	2472	127.179297307318	1
0	2474	127.18159595736	2
0	2475	127.18648798907	1
0	2477	127.19648798907	0
0	2712	136.221872677216	1
0	2713	136.229925595348	0
0	2748	137.848921995301	1
0	2749	137.849794385402	0
0	2812	140.784108921483	1
0	2813	140.786908355533	0
0	2984	148.441690425342	1
0	2985	148.446202005256	0
0	3008	149.289915321219	1
0	3009	149.297952433939	0
0	3156	158.608209406592	1
0	3157	158.611435035544	0
0	3188	159.741952161312	1
0	3189	159.748659504515	0
0	3276	163.459798675742	1
0	3277	163.463071891558	0
0	3284	163.610728504485	1
0	3285	163.61758267973	0
0	3312	164.31259527996	1
0	3313	164.315994482949	0
0	3340	165.014342086528	1
0	3341	165.021920237516	0
0	3376	167.985402350546	1
0	3377	167.986055370199	0
0	3548	176.888588216932	1
0	3549	176.889168362721	0
0	3808	191.232642597718	1
0	3809	191.237656978572	0
0	3912	197.095046483582	1
0	3913	197.101148624992	0
0	3984	201.110762463066	1
0	3985	201.115596854181	0
0	4024	202.830942913104	1
0	4025	202.835566789202	0
0	4060	205.108564777453	1
0	4061	205.108581656968	0
0	4180	210.958270759782	1
0	4181	210.96213040518	0
0	4196	211.480496994969	1
0	4197	211.488913925668	0
0	4208	211.702041659511	1
0	4209	211.707075017962	0
0	4244	212.917611271373	1
0	4245	212.922688542559	0
0	4264	213.782022995977	1
0	4265	213.790313392248	0
0	4324	216.6760926447	1
0	4325	216.685551269784	0
0	4364	219.647177807273	1
0	4365	219.653774682527	0
0	4400	221.228033115035	1
0	4401	221.232126752802	0
0	4560	231.292877710832	1
0	4561	231.294092264007	0
0	4572	231.82950291146	1
0	4573	231.832163097404	0
0	4692	237.080665462288	1
0	4693	237.082581146757	0
0	4768	241.055902125169	1
0	4769	241.065281253807	0
0	4792	241.760500596022	1
0	4793	241.769459969461	0
0	4952	249.565044124928	1
0	4953	249.567386365374	0
0	5048	256.724915344552	1
0	5049	256.730529868414	0
0	5192	265.094396887248	1
0	5193	265.102602609781	0
0	5296	270.277702071778	1
0	5297	270.279610480646	0
0	5368	272.372773843354	1
0	5369	272.37833011295	0
0	5460	276.325008891954	1
0	5461	276.328927293201	0
0	5504	277.907724699085	1
0	5505	277.911708139978	0
0	5532	280.091958611975	1
0	5534	280.092200272351	2
0	5535	280.096033661516	1
0	5537	280.106033661516	0
0	5580	283.197075812927	1
0	5581	283.203214191888	0
0	5640	285.36259924054	1
0	5641	285.370853661279	0
0	5648	285.388726693026	1
0	5649	285.393674468666	0
0	5780	290.495765561528	1
0	5781	290.499889572072	0
0	5924	296.759579701106	1
0	5925	296.75999226119	0
0	5940	297.91744908644	1
0	5941	297.926675521803	0
0	6048	304.425527903814	1
0	6049	304.428836951989	0
0	6060	304.629828260148	1
0	6061	304.639551397627	0
0	6064	304.649548160188	1
0	6065	304.649551397627	0
0	6304	318.329408568823	1
0	6305	318.331959350362	0
0	6368	321.915769474502	1
0	6369	321.925233342835	0
0	6400	323.076542371247	1
0	6401	323.081529453736	0
0	6404	323.084705271317	1
0	6406	323.086204540207	2
0	6407	323.091529453736	1
0	6409	323.101529453736	0
0	6572	330.317402626653	1
0	6573	330.327293402661	0
0	6680	334.632457392227	1
0	6681	334.637238599234	0
0	6720	336.04827743084	1
0	6721	336.051716319895	0
0	6820	341.655448633638	1
0	6821	341.664415376417	0
0	6840	342.667794511684	1
0	6841	342.670861571172	0
0	7040	352.48687609564	1
0	7041	352.487454928142	0
0	7128	357.970576250912	1
0	7129	357.971318349728	0
0	7420	372.478346775281	1
0	7421	372.480482725295	0
0	7452	374.495836038476	1
0	7453	374.497061502886	0
0	7848	396.273124308209	1
0	7849	396.281178207023	0
0	7924	400.100980590474	1
0	7926	400.107496721191	2
0	7927	400.108531422705	1
0	7929	400.118531422705	0
0	7976	401.526044154551	1
0	7977	401.527731730791	0
0	8012	403.813583650467	1
0	8013	403.821560715342	0
0	8036	404.981810750671	1
0	8037	404.982816417083	0
0	8060	405.79281579891	1
0	8061	405.79658761222	0
0	8112	407.862477350768	1
0	8113	407.865899096807	0
0	8116	407.866711877139	1
0	8117	407.875899096807	0
0	8128	408.222206332744	1
0	8129	408.222621949325	0
0	8320	419.304379899952	1
0	8321	419.305377003786	0
0	8356	420.297569254713	1
0	8357	420.302654825558	0
0	8408	422.315558655997	1
0	8410	422.318278811195	2
0	8411	422.322766242346	1
0	8413	422.332766242346	0
0	8500	426.039499965947	1
0	8501	426.048435126266	0
0	8508	426.19126771836	1
0	8509	426.198983701051	0
0	8560	428.881912419567	1
0	8562	428.882045306812	2
0	8563	428.88577764443	1
0	8565	428.89577764443	0
0	8576	429.937792235876	1
0	8577	429.94211604612	0
0	8692	436.729457617164	1
0	8693	436.73068684283	0
0	8772	440.745770828725	1
0	8773	440.752329290096	0
0	8940	450.457372409303	1
0	8941	450.46021379762	0
0	9044	457.459142491784	1
0	9045	457.468729138615	0
0	9204	463.962517759852	1
0	9205	463.967540943524	0
0	9272	468.252801469122	1
0	9273	468.261735626106	0
0	9320	470.115434217175	1
0	9321	470.118563215743	0
0	9324	470.119086637073	1
0	9325	470.128563215743	0
0	9328	470.136389192366	1
0	9329	470.138563215743	0
0	9552	483.713840881069	1
0	9553	483.72382876671	0
0	9588	485.170572186526	1
0	9589	485.17664131509	0
0	9684	489.7699543848	1
0	9685	489.771544044055	0
0	9688	489.776371148906	1
0	9689	489.781544044055	0
0	9704	490.909418297338	1
0	9705	490.917534416026	0
0	9708	490.919889134757	1
0	9709	490.927534416026	0
0	9776	495.401718185014	1
0	9777	495.411579827104	0
0	9840	499.355146630621	1
0	9841	499.357495249577	0
0	9876	500.164603162348	1
0	9877	500.173670022137	0
0	9888	500.47837347539	1
0	9889	500.481127422817	0
0	10040	508.717355006864	1
0	10041	508.72038579754	0
0	10172	518.690010703242	1
0	10173	518.692731285265	0
0	10260	521.927013050998	1
0	10261	521.932695034849	0
0	10356	526.402069671496	1
0	10357	526.407053477584	0
0	10368	526.998573987605	1
0	10369	527.00498830073	0
0	10480	534.542425265158	1
0	10481	534.543715136897	0
0	10572	539.845832061929	1
0	10573	539.84826476957	0
0	10580	539.864479066127	1
0	10581	539.871608258534	0
0	10628	543.131870569437	1
0	10629	543.132751580923	0
0	10736	547.609675079916	1
0	10737	547.614184760382	0
0	10792	550.049548623704	1
0	10793	550.059405180125	0
0	10800	550.284441665708	1
0	10801	550.291463414605	0
0	10988	560.698651077849	1
0	10989	560.701174782	0
0	11016	562.232519618467	1
0	11017	562.239773299471	0
0	11048	563.407858848016	1
0	11049	563.409856403567	0
0	11052	563.413990440492	1
0	11053	563.419856403567	0
0	11224	572.076045181033	1
0	11225	572.081528243298	0
0	11260	574.659595422522	1
0	11261	574.664492822779	0
0	11376	580.486468362447	1
0	11377	580.487274278635	0
0	11624	593.498538995069	1
0	11625	593.499441623426	0
0	11696	597.788508527042	1
0	11697	597.796719751815	0
0	11764	601.997910050366	1
0	11765	602.004632786849	0
0	11792	603.087558556911	1
0	11793	603.089859429933	0
0	11860	604.835693229643	1
0	11861	604.837935775382	0
0	11964	612.321367247878	1
0	11965	612.325187446133	0
0	11988	613.431840051088	1
0	11989	613.433182534853	0
0	12048	616.141802557123	1
0	12049	616.145071818856	0
0	12084	619.038544382115	1
0	12085	619.039228610299	0
0	12112	620.104864878653	1
0	12113	620.11464151735	0
0	12500	642.436544014082	1
0	12501	642.437867607698	0
0	12504	642.440613384722	1
0	12505	642.447867607698	0
0	12596	645.690573834101	1
0	12597	645.696596212629	0
0	12604	645.857276986765	1
0	12605	645.858930243083	0
0	12616	646.309925927388	1
0	12617	646.311927646658	0
0	12688	650.932147710207	1
0	12689	650.936245294138	0
0	12700	651.171194303342	1
0	12701	651.174220718918	0
0	12784	655.102920675928	1
0	12785	655.103421839419	0
0	12800	655.980267621624	1
0	12801	655.984598775871	0
0	12944	663.724996263539	1
0	12945	663.734008000602	0
0	13032	668.474611773496	1
0	13033	668.479055146761	0
0	13060	670.090291738856	1
0	13061	670.091550855007	0
0	13068	670.139418553397	1
0	13070	670.148358553918	2
0	13071	670.149345069864	1
0	13073	670.159345069864	0
0	13128	672.833116271288	1
0	13129	672.835993045943	0
0	13232	678.813024782551	1
0	13233	678.818643352195	0
0	13428	690.474555775421	1
0	13429	690.475503581018	0
0	13432	690.484700080008	1
0	13433	690.485503581018	0
0	13464	691.799808111596	1
0	13465	691.801371370779	0
0	13468	691.806473124927	1
0	13470	691.807424887588	2
0	13471	691.811371370779	1
0	13473	691.821371370779	0
0	13512	693.433822814278	1
0	13513	693.435856804819	0
0	13628	698.677813103104	1
0	13629	698.681113028748	0
0	13640	698.811609782332	1
0	13641	698.819566390743	0
0	13700	701.917669059257	1
0	13701	701.926925724989	0
0	13792	706.179539772269	1
0	13793	706.187659244067	0
0	13824	707.640364631904	1
0	13825	707.641013996117	0
0	13868	708.742136116222	1
0	13869	708.74716522656	0
0	13896	709.339230674895	1
0	13897	709.34106271893	0
0	13936	711.760754015235	1
0	13937	711.769163805405	0
0	13944	711.823079132322	1
0	13945	711.825108554163	0
0	13980	713.493534250595	1
0	13981	713.501713992867	0
0	14008	714.111522682426	1
0	14009	714.114869350293	0
0	14032	714.829899202037	1
0	14033	714.836896776061	0
0	14104	717.972181828258	1
0	14105	717.976114492911	0
0	14384	733.978312836644	1
0	14385	733.985720658589	0
0	14436	736.710145998407	1
0	14437	736.71697331877	0
0	14460	737.554016002343	1
0	14461	737.558261416144	0
0	14540	744.881988868447	1
0	14541	744.889307754243	0
0	14744	755.528656844252	1
0	14745	755.536691716999	0
0	15012	767.809876011081	1
0	15013	767.810783757186	0
0	15088	772.018634982275	1
0	15089	772.021977829084	0
0	15136	773.549321355493	1
0	15137	773.558547856628	0
0	15188	776.430434365719	1
0	15189	776.435099578319	0
0	15232	778.69092339908	1
0	15233	778.692310372992	0
0	15384	785.880569749669	1
0	15386	785.882427953599	2
0	15387	785.882930145502	1
0	15389	785.892930145502	0
0	15444	789.382498423889	1
0	15445	789.383814682496	0
0	15492	791.105142278294	1
0	15493	791.112124370833	0
0	15572	794.618482623832	1
0	15573	794.627238075883	0
0	15580	794.672136763817	1
0	15581	794.680271200791	0
0	15796	806.725942132657	1
0	15797	806.734982357393	0
0	15940	814.560850749255	1
0	15941	814.565242208826	0
0	16108	820.89847648102	1
0	16109	820.900476485552	0
0	16116	821.037061726555	1
0	16117	821.041950605324	0
0	16164	824.244991916181	1
0	16165	824.247820919137	0
0	16260	828.014639896426	1
0	16261	828.02432072831	0
0	16312	830.879600667518	1
0	16313	830.883538987647	0
0	16444	838.559829258867	1
0	16445	838.569814518933	0
0	16512	841.122272838806	1
0	16513	841.127884687758	0
0	16560	843.180656149334	1
0	16561	843.183078151663	0
0	16596	844.647303435408	1
0	16597	844.65178853466	0
0	16624	845.142156394762	1
0	16625	845.151604031481	0
0	16884	857.92844202959	1
0	16885	857.929471335563	0
0	16980	861.655892901003	1
0	16981	861.659951323782	0
0	17112	869.276265089092	1
0	17113	869.28622774283	0
0	17140	870.767367850967	1
0	17141	870.767980898982	0
0	17192	872.694928782163	1
0	17193	872.700281967451	0
0	17236	876.122323610262	1
0	17237	876.130862080131	0
0	17244	876.161320681506	1
0	17245	876.164525069062	0
0	17396	884.457465401284	1
0	17397	884.46471550171	0
0	17452	888.392998088641	1
0	17453	888.399114208146	0
0	17472	888.814221806238	1
0	17473	888.818173353516	0
0	17588	895.257241673544	1
0	17589	895.261508956347	0
0	17780	903.893838391062	1
0	17781	903.901709958364	0
0	17812	905.99624595956	1
0	17813	905.997800869251	0
0	17948	914.581771011743	1
0	17949	914.590669019168	0
0	18332	937.999464778714	1
0	18333	938.006304722408	0
0	18512	947.361486224418	1
0	18513	947.363756423421	0
0	18568	950.287837337865	1
0	18569	950.288475967245	0
0	18664	955.096700252391	1
0	18665	955.099921967987	0
0	18796	962.24599921161	1
0	18797	962.255818473133	0
0	18968	972.555601816206	1
0	18969	972.562255830952	0
0	19024	975.324561926095	1
0	19025	975.332569514843	0
0	19216	983.838014634343	1
0	19218	983.844437769345	2
0	19219	983.845414265605	1
0	19221	983.855414265605	0
0	19252	985.723927145935	1
0	19253	985.729224975602	0
0	19288	986.414382693077	1
0	19289	986.421245471855	0
0	19308	987.359862614924	1
0	19309	987.363711298769	0
0	19324	987.715485589574	1
0	19325	987.716379470669	0
0	19328	987.721580518675	1
0	19329	987.726379470669	0
0	19428	992.338598932068	1
0	19429	992.347493796118	0
0	19452	993.684873141027	1
0	19453	993.687725451507	0
0	19524	998.525960903272	1
0	19525	998.529951349079	0
1	2	0	0
1	6	0.159174900913	0
1	10	0.33888697861	0
1	14	0.590073130219	0
1	18	0.961993972634	0
1	22	1.146638598928	0
1	26	1.536947666105	0
1	30	1.694387894101	0
1	34	2.070180704942	0
1	38	2.180390402276	0
1	42	2.375791687555	0
1	46	2.583423547688	0
1	50	2.680449180432	0
1	54	2.795553019809	0
1	58	2.866184847637	0
1	62	3.310889732044	0
1	66	3.322566665863	0
1	70	3.985549121849	0
1	74	4.049220350017	0
1	78	4.145940771007	0
1	82	4.275830040657	0
1	86	4.589609264182	0
1	90	4.924051504247	0
1	94	5.07458632691	0
1	98	5.205362840354	0
1	102	5.373249410934	0
1	106	5.473023812737	0
1	110	5.992674629907	0
1	114	6.354348482762	0
1	118	6.369085553855	0
1	122	6.451401153104	0
1	126	6.469633358329	0
1	130	6.678555859991	0
1	133	6.688555859991	0.00591488232
1	138	6.774490605122	0
1	142	7.13198813781	0
1	146	7.762022123545	0
1	150	8.063178975272	0
1	154	8.093425146005	0
1	158	8.501487997593	0
1	162	8.909666440775	0
1	166	9.678710814603	0
1	170	9.807052649139	0
1	174	10.128100560551	0
1	178	10.45090097553	0
1	182	10.574686867455	0
1	186	10.721679751693	0
1	190	11.024986946491	0
1	194	11.252174734833	0
1	198	11.277349616721	0
1	202	11.532395157166	0
1	206	11.736681532036	0
1	210	11.911145771044	0
1	214	11.942091707144	0
1	218	12.096258638837	0
1	222	12.675142734434	0
1	226	12.959415670453	0
1	230	13.106981128804	0
1	234	13.129370360931	0
1	238	13.236483504977	0
1	242	13.364822445383	0
1	246	13.426278515814	0
1	250	13.46751917222	0
1	254	13.76517013737	0
1	258	14.032228174295	0
1	262	14.154044658932	0
1	266	14.202854357079	0
1	270	14.370921298201	0
1	274	14.399976903659	0
1	277	14.409976903659	0.00620628616
1	282	14.482124779634	0
1	286	14.674400967447	0
1	290	14.706828265336	0
1	294	14.896227600771	0
1	298	14.946515987186	0
1	302	15.13842558266	0
1	306	15.236136992522	0
1	310	15.811719996778	0
1	314	16.277502671621	0
1	318	16.506530462561	0
1	322	16.626079677925	0
1	326	16.715183376935	0
1	330	16.905082293634	0
1	334	17.019988774982	0
1	338	17.485258987321	0
1	342	17.724480547212	0
1	346	17.745392792367	0
1	350	17.75781585046	0
1	354	18.457858587351	0
1	358	18.677641080861	0
1	362	18.889407907159	0
1	366	19.111527396296	0
1	370	19.1490126095	0
1	374	19.196253950717	0
1	378	19.284934756441	0
1	382	19.312540494127	0
1	386	19.590349032085	0
1	390	19.666141424942	0
1	394	19.853353736896	0
1	398	19.943774148941	0
1	402	20.022396660402	0
1	406	20.191282219108	0
1	409	20.201282219108	0.002163368717
1	414	20.314583712552	0
1	418	20.515757913585	0
1	422	21.40665728282	0
1	426	22.045246611231	0
1	430	22.066773632862	0
1	434	22.278338915532	0
1	438	22.325199219287	0
1	442	22.526803068371	0
1	446	22.561985777456	0
1	450	23.634005847505	0
1	454	23.845754390524	0
1	458	24.020137561249	0
1	462	24.078553667902	0
1	466	24.185566603319	0
1	470	24.311154919517	0
1	474	24.439911119838	0
1	478	24.495966521534	0
1	482	24.691339336348	0
1	486	24.725964827577	0
1	490	24.808465073561	0
1	494	24.831856155519	0
1	498	25.056489815826	0
1	502	25.270104255256	0
1	506	25.346415423931	0
1	510	25.376157877781	0
1	514	25.677484944436	0
1	518	25.721261063737	0
1	522	26.318699042107	0
1	526	26.410701833655	0
1	530	26.627955709831	0
1	534	26.972022041374	0
1	537	26.982022041374	0.007267084314
1	542	26.995183933365	0
1	546	27.190204320196	0
1	550	27.554168104053	0
1	554	27.778130977204	0
1	558	27.798337932266	0
1	562	28.513055606735	0
1	566	29.262861898652	0
1	570	29.68392615881	0
1	574	29.810393478089	0
1	578	29.952910196756	0
1	582	30.705295653657	0
1	586	30.716761038942	0
1	590	30.902456738322	0
1	594	31.02244611565	0
1	598	31.29129517008	0
1	601	31.30129517008	0.005961974371
1	605	31.31129517008	0.007966714559
1	610	31.419904133294	0
1	614	31.486386181487	0
1	618	32.264700206056	0
1	622	32.290311559118	0
1	626	32.379395451502	0
1	630	32.449630669378	0
1	634	32.580759926251	0
1	638	32.606037653536	0
1	642	32.839412358846	0
1	646	32.915952548618	0
1	650	33.340799988018	0
1	654	33.447776863169	0
1	658	33.948559219786	0
1	662	33.961818700082	0
1	666	34.010697789698	0
1	670	34.246535695111	0
1	674	34.413104398324	0
1	678	34.580323904718	0
1	682	34.980972009219	0
1	686	35.042654977239	0
1	690	35.184904564682	0
1	694	35.333056354771	0
1	698	35.830172826166	0
1	702	35.84990288785	0
1	706	36.357963789442	0
1	710	36.529542917657	0
1	714	36.546897014125	0
1	718	37.07674819986	0
1	722	37.141816282966	0
1	726	37.218528325786	0
1	729	37.228528325786	0.008119849867
1	734	37.440577657937	0
1	738	37.810043188137	0
1	742	37.838309330849	0
1	746	38.046665461685	0
1	750	38.298652223707	0
1	754	38.666908718004	0
1	758	38.735239551409	0
1	762	38.796743096161	0
1	766	38.837213183874	0
1	770	38.938653208525	0
1	774	39.115279016917	0
1	778	39.276238496877	0
1	781	39.286238496877	0.005937508241
1	786	39.316351439033	0
1	790	39.669499653516	0
1	794	39.761845832725	0
1	797	39.771845832725	0.009058691902
1	802	39.794455442069	0
1	806	40.020982270463	0
1	810	40.189598876893	0
1	814	40.252543209064	0
1	818	40.495844939751	0
1	822	40.761596514501	0
1	826	40.829665862148	0
1	830	41.484694497691	0
1	834	41.598275328387	0
1	838	41.655479522889	0
1	842	41.937684404748	0
1	846	42.109362998314	0
1	850	42.210231759632	0
1	854	42.389549933789	0
1	858	42.842296648961	0
1	862	43.012140811274	0
1	866	43.215872557278	0
1	870	43.266356555856	0
1	874	43.710657935551	0
1	878	44.321114266928	0
1	882	44.549035859635	0
1	886	44.667560665125	0
1	890	44.786836543991	0
1	894	45.161528519962	0
1	898	45.930129836611	0
1	902	46.17057755006	0
1	906	46.195282879532	0
1	910	46.265886906187	0
1	914	46.5572506179	0
1	918	46.893435058809	0
1	922	46.999579558132	0
1	926	47.100583307683	0
1	930	47.325639711052	0
1	934	47.751539590266	0
1	938	47.80902168548	0
1	942	47.983128850745	0
1	946	48.058276619226	0
1	950	48.485242709223	0
1	954	49.158116799833	0
1	958	49.393993386562	0
1	962	49.571565668649	0
1	966	49.829947522409	0
1	970	50.045514499236	0
1	974	50.184674391416	0
1	978	50.337047945675	0
1	982	50.962141617207	0
1	986	51.014553065542	0
1	990	51.221112467671	0
1	994	51.321574627323	0
1	998	51.43185382535	0
1	1002	51.624744538449	0
1	1006	51.81122511453	0
1	1010	51.940046056195	0
1	1013	51.950046056195	0.00612404373
1	1018	52.070947555591	0
1	1022	52.142732998765	0
1	1026	52.394541702218	0
1	1030	52.610405741949	0
1	1034	52.678338688465	0
1	1038	52.746858613405	0
1	1042	52.843585750723	0
1	1046	53.036060761877	0
1	1050	53.312656603184	0
1	1054	53.424648817199	0
1	1058	53.846138338189	0
1	1062	53.875253133879	0
1	1066	53.896962553578	0
1	1070	53.967807380027	0
1	1074	53.987191930942	0
1	1078	54.15596962546	0
1	1082	54.243375228215	0
1	1086	54.422121043876	0
1	1090	54.582631441028	0
1	1094	54.753447388157	0
1	1097	54.763447388157	0.003159316328
1	1102	54.972089948905	0
1	1106	55.666597044761	0
1	1110	55.877766966493	0
1	1114	55.955192984923	0
1	1118	56.068115085147	0
1	1122	56.118131384143	0
1	1126	56.571858182681	0
1	1130	56.602316907732	0
1	1134	56.693951484524	0
1	1138	56.714415607495	0
1	1142	56.828907917781	0
1	1146	57.656469869883	0
1	1150	58.101452801328	0
1	1154	58.161765983973	0
1	1158	58.489945499558	0
1	1162	58.643960871467	0
1	1166	58.887364770534	0
1	1170	59.006179470199	0
1	1174	59.027301998925	0
1	1178	59.048278366045	0
1	1182	59.552134792062	0
1	1186	59.639003923251	0
1	1190	59.889525428233	0
1	1194	60.016217951778	0
1	1198	61.369296055765	0
1	1202	61.73724261278	0
1	1206	61.769616630122	0
1	1210	62.239652088072	0
1	1214	62.644833851493	0
1	1217	62.654833851493	0.002343417423
1	1222	62.687955549099	0
1	1226	62.829939134544	0
1	1230	63.021132419328	0
1	1234	63.057640139705	0
1	1238	63.084076881628	0
1	1242	63.38604157275	0
1	1246	63.762827350067	0
1	1250	64.163224649172	0
1	1254	64.492568469437	0
1	1258	64.598569045064	0
1	1262	64.76694523741	0
1	1266	64.797103439449	0
1	1270	64.901677445467	0
1	1273	64.911677445467	0.00324264289
1	1278	64.92276987944	0
1	1282	65.732739247201	0
1	1286	65.971826960457	0
1	1290	66.065281473739	0
1	1294	66.186141288109	0
1	1298	66.295112713738	0
1	1302	66.5511795545	0
1	1306	66.561562064937	0
1	1310	66.964116612178	0
1	1314	67.055098981136	0
1	1318	67.797091099517	0
1	1321	67.807091099517	0.006646446802
1	1326	68.187760100213	0
1	1330	68.240225962046	0
1	1333	68.250225962046	0.007643353616
1	1338	68.532141424828	0
1	1342	68.621391988932	0
1	1346	69.198314339352	0
1	1350	69.460174012157	0
1	1354	69.737432282561	0
1	1358	69.775091277605	0
1	1362	69.858013786137	0
1	1366	70.005240006134	0
1	1370	70.139732109501	0
1	1374	70.150906120079	0
1	1378	70.233701904614	0
1	1382	70.278329746234	0
1	1386	70.317895647726	0
1	1389	70.327895647726	0.006260905916
1	1394	70.359138532051	0
1	1398	70.674821076472	0
1	1402	70.799340545268	0
1	1406	70.850041686297	0
1	1410	71.265247898386	0
1	1414	71.349979318657	0
1	1418	71.926888176338	0
1	1422	72.453331948848	0
1	1426	72.640759692393	0
1	1430	72.884519053062	0
1	1434	73.066111858527	0
1	1437	73.076111858527	0.003528639071
1	1442	73.378749464709	0
1	1446	73.414740933019	0
1	1450	73.553380886927	0
1	1454	73.747677318546	0
1	1458	73.758013899705	0
1	1462	73.930198627041	0
1	1466	74.170392808349	0
1	1470	74.224726422417	0
1	1474	75.200553000016	0
1	1478	75.744822651199	0
1	1482	75.807016212193	0
1	1486	75.997382153701	0
1	1490	76.224701452752	0
1	1494	76.378117383666	0
1	1498	76.777551777164	0
1	1502	76.955827492546	0
1	1506	77.233762905301	0
1	1510	77.495719979573	0
1	1514	78.163306846344	0
1	1518	78.238084145525	0
1	1522	78.399680156205	0
1	1526	78.501253180742	0
1	1530	78.549003755312	0
1	1534	78.596108669996	0
1	1538	78.646428392619	0
1	1542	78.687634802316	0
1	1546	78.737006656076	0
1	1550	79.314821774456	0
1	1554	79.483417529539	0
1	1558	79.752487016186	0
1	1562	79.872822813491	0
1	1566	80.007671727418	0
1	1570	80.710567463525	0
1	1574	80.762170016313	0
1	1578	80.990397596885	0
1	1582	81.04909912727	0
1	1586	81.066929985269	0
1	1590	81.078886177852	0
1	1594	81.090500650275	0
1	1598	81.204480163336	0
1	1602	81.338302908074	0
1	1606	81.413036866953	0
1	1610	81.838770885859	0
1	1614	82.07714250659	0
1	1618	82.826481429355	0
1	1622	82.921364687422	0
1	1626	83.113652601736	0
1	1630	83.153246148803	0
1	1634	83.309641292978	0
1	1637	83.319641292978	0.005002329337
1	1642	83.700310991017	0
1	1646	83.714234525232	0
1	1650	83.986620870093	0
1	1654	84.214128571201	0
1	1658	84.344374717585	0
1	1662	84.465290961252	0
1	1666	84.691362070434	0
1	1670	84.845186030653	0
1	1674	85.031998097174	0
1	1678	85.485966100331	0
1	1682	85.736806754349	0
1	1686	86.664737259624	0
1	1690	86.791523263503	0
1	1694	86.840421467912	0
1	1698	86.962188050659	0
1	1702	87.179768937382	0
1	1706	87.653552571549	0
1	1710	87.714673551912	0
1	1714	87.74419275849	0
1	1717	87.75419275849	0.005826556278
1	1722	87.800436484521	0
1	1726	88.084513175638	0
1	1730	88.511225833133	0
1	1734	88.588363371942	0
1	1738	89.057932124228	0
1	1742	89.154659801726	0
1	1746	89.362229816824	0
1	1750	89.539730202521	0
1	1754	89.618244808159	0
1	1758	89.973873475526	0
1	1762	90.12054701016	0
1	1766	90.318847868739	0
1	1769	90.328847868739	0.009988929621
1	1774	90.731023187294	0
1	1778	90.805775846057	0
1	1782	90.869690777032	0
1	1786	90.980524942842	0
1	1790	91.30046883121	0
1	1794	91.733621567385	0
1	1798	91.774691121132	0
1	1802	92.002502651267	0
1	1806	92.613139585186	0
1	1810	92.734948507728	0
1	1814	92.967571164413	0
1	1818	93.099671780363	0
1	1822	93.148215479097	0
1	1826	93.459148066659	0
1	1830	94.048044122144	0
1	1834	94.100172148019	0
1	1838	94.362673746612	0
1	1842	94.7872230774	0
1	1846	94.845813369097	0
1	1850	94.921099239401	0
1	1854	94.969083943288	0
1	1858	95.600503051571	0
1	1862	95.746548584619	0
1	1866	95.874186305738	0
1	1869	95.884186305738	0.004800450961
1	1874	96.128056010367	0
1	1878	96.174561014044	0
1	1882	96.207935942291	0
1	1886	96.318503616421	0
1	1890	96.580698090053	0
1	1894	96.674433385248	0
1	1898	96.882274512564	0
1	1902	97.006840374517	0
1	1906	97.055224303471	0
1	1910	97.120267507066	0
1	1914	97.161539105787	0
1	1918	97.338296236994	0
1	1922	97.667911471626	0
1	1926	98.066719311881	0
1	1930	98.341655302641	0
1	1934	98.366661820626	0
1	1938	98.591353920536	0
1	1942	98.737058689083	0
1	1946	98.80189851178	0
1	1950	98.830226918739	0
1	1954	98.868679206907	0
1	1958	99.121041741604	0
1	1962	99.36484161064	0
1	1966	99.46569759729	0
1	1970	99.590104981106	0
1	1974	99.756780629235	0
1	1978	100.123833309823	0
1	1982	100.164325062563	0
1	1986	100.210173927604	0
1	1990	100.241469081681	0
1	1994	100.277523941597	0
1	1998	100.411432059769	0
1	2002	100.438100184424	0
1	2006	100.525991262523	0
1	2010	100.782076133319	0
1	2014	101.346203323002	0
1	2017	101.356203323002	0.003814741688
1	2022	101.6422995366	0
1	2026	101.917168139484	0
1	2030	102.193360758617	0
1	2034	102.21279429429	0
1	2038	102.680892686421	0
1	2042	102.729932304949	0
1	2046	102.747354021601	0
1	2050	103.024017314831	0
1	2054	103.184695667364	0
1	2058	103.447820919023	0
1	2062	103.623463934767	0
1	2065	103.633463934767	0.000662451271
1	2070	104.286500763661	0
1	2074	104.333431933512	0
1	2078	104.402535850254	0
1	2082	104.470166793223	0
1	2086	104.525272380631	0
1	2090	104.751456076469	0
1	2094	104.77259351129	0
1	2098	104.785616084247	0
1	2101	104.795616084247	0.006686781116
1	2106	104.951157507577	0
1	2110	105.481669210681	0
1	2113	105.491669210681	0.008143395124
1	2118	105.7052077664	0
1	2122	106.063205687296	0
1	2126	106.370771430191	0
1	2130	107.201965649304	0
1	2134	107.268147625539	0
1	2138	107.511285720211	0
1	2142	107.687861829202	0
1	2146	107.727950268219	0
1	2150	107.741168670358	0
1	2154	107.88481796638	0
1	2158	108.01777951629	0
1	2162	108.191492662583	0
1	2166	108.950297419201	0
1	2170	109.260099755032	0
1	2174	109.678411069557	0
1	2178	109.864933440611	0
1	2182	109.947479413956	0
1	2186	109.996762578399	0
1	2190	110.648546773836	0
1	2194	110.77000263156	0
1	2198	110.822718054127	0
1	2202	111.244895809004	0
1	2206	111.841335944099	0
1	2210	111.97689634451	0
1	2214	112.544224383185	0
1	2218	112.795671782299	0
1	2222	113.116763534913	0
1	2226	113.24993203224	0
1	2230	113.449024760913	0
1	2234	113.695600853519	0
1	2238	114.110353146139	0
1	2242	114.248240053709	0
1	2246	114.317590714467	0
1	2250	114.689877043063	0
1	2254	115.067897382682	0
1	2258	115.111116626001	0
1	2262	115.303519011319	0
1	2266	115.600367507849	0
1	2269	115.610367507849	0.007334951034
1	2274	116.334964022968	0
1	2278	116.420271185375	0
1	2282	116.816820966296	0
1	2286	116.848887785193	0
1	2290	117.152101571158	0
1	2294	117.953691502133	0
1	2298	118.794063387383	0
1	2302	118.924222855855	0
1	2306	119.204357995247	0
1	2310	119.341946690939	0
1	2313	119.351946690939	0.009188735736
1	2318	119.546795372794	0
1	2322	119.609594952407	0
1	2326	119.701553215962	0
1	2330	119.807246661622	0
1	2334	119.836691669085	0
1	2338	119.948493203083	0
1	2342	120.293819879031	0
1	2346	120.364539194084	0
1	2350	120.406645851725	0
1	2354	120.509188780251	0
1	2358	120.65239784385	0
1	2362	120.678113891305	0
1	2366	120.728916166975	0
1	2370	121.518442820487	0
1	2374	121.539036493231	0
1	2378	121.643252257448	0
1	2382	122.03963032567	0
1	2386	122.208057586237	0
1	2390	122.929845787234	0
1	2394	123.014044446844	0
1	2398	123.662037040224	0
1	2402	123.973095912295	0
1	2406	124.447173428418	0
1	2410	124.553165744272	0
1	2414	124.85065169514	0
1	2418	124.939681563021	0
1	2422	125.020718139489	0
1	2426	125.122716306259	0
1	2430	125.139632204611	0
1	2434	125.211490985636	0
1	2438	125.316084516367	0
1	2442	125.614610949205	0
1	2446	125.667465042032	0
1	2450	126.188779402496	0
1	2454	126.217204504775	0
1	2458	126.295904987	0
1	2462	126.30688646151	0
1	2466	126.917858417311	0
1	2470	127.17648798907	0
1	2475	127.18648798907	0.007190681752
1	2477	127.19648798907	0.01489203171
1	2482	127.334080694203	0
1	2486	127.628521525802	0
1	2490	127.701169969582	0
1	2494	127.732956605513	0