version 2
run OneFifo-0-20081210-11:48:12-11130
attr configname OneFifo
attr datetime 20081210-11:48:12
attr experiment OneFifo
attr inifile omnetpp.ini
attr iterationvars ""
attr iterationvars2 $repetition=0
attr measurement ""
attr network SimpleQueue
attr processid 11130
attr repetition 0
attr replication #0
attr resultdir results
attr runnumber 0
attr seedset 0

vector 9  SimpleQueue.queue  "queueing time"  ETV
vector 8  SimpleQueue.queue  length  ETV
vector 0  SimpleQueue.sink  "total lifetime"  ETV
vector 1  SimpleQueue.sink  "total queueing time"  ETV
vector 2  SimpleQueue.sink  "number of queue nodes visited"  ETV
vector 3  SimpleQueue.sink  "total service time"  ETV
vector 4  SimpleQueue.sink  "total delay"  ETV
vector 5  SimpleQueue.sink  "number of delay nodes visited"  ETV
vector 6  SimpleQueue.sink  generation  ETV
vector 7  SimpleQueue.queue  "dropped jobs"  ETV
0	6	2.540824900056	1.340831700958
0	16	4.565747219545	2.32010813241
0	20	6.45496465819	3.870749628497
0	26	10.27944141133	7.388797258374
0	28	10.737616055825	6.632604181426
0	50	22.216625038447	17.780098327987
0	52	22.525892000462	16.371692662253
0	54	23.242021797457	16.213583064929
1	6	2.540824900056	0
1	16	4.565747219545	0.295185812921
1	20	6.45496465819	1.981532189852
1	26	10.27944141133	3.564320505234
1	28	10.737616055825	6.174429536931
1	50	22.216625038447	6.301089345365
1	52	22.525892000462	16.062425700238
1	54	23.242021797457	15.497453267934
2	6	2.540824900056	0
2	16	4.565747219545	0
2	20	6.45496465819	0
2	26	10.27944141133	0
2	28	10.737616055825	0
2	50	22.216625038447	0
2	52	22.525892000462	0
2	54	23.242021797457	0
3	6	2.540824900056	1.340831700958
3	16	4.565747219545	2.024922319489
3	20	6.45496465819	1.889217438645
3	26	10.27944141133	3.82447675314
3	28	10.737616055825	0.458174644495
3	50	22.216625038447	11.479008982622
3	52	22.525892000462	0.309266962015
3	54	23.242021797457	0.716129796995
4	6	2.540824900056	0
4	16	4.565747219545	0
4	20	6.45496465819	0
4	26	10.27944141133	0
4	28	10.737616055825	0
4	50	22.216625038447	0
4	52	22.525892000462	0
4	54	23.242021797457	0
5	6	2.540824900056	0
5	16	4.565747219545	0
5	20	6.45496465819	0
5	26	10.27944141133	0
5	28	10.737616055825	0
5	50	22.216625038447	0
5	52	22.525892000462	0
5	54	23.242021797457	0
6	6	2.540824900056	0
6	16	4.565747219545	0
6	20	6.45496465819	0
6	26	10.27944141133	0
6	28	10.737616055825	0
6	50	22.216625038447	0
6	52	22.525892000462	0
6	54	23.242021797457	0
7	34	13.778961019256	1
7	36	15.696097332416	2
7	38	17.173788122934	3
7	40	17.64087037786	4
7	42	18.056964716246	5
7	44	19.330895722046	6
7	46	20.798929193624	7
7	48	21.930040005669	8
8	2	1.199993199098	0
8	4	2.245639087135	1
8	5	2.540824900056	0
8	8	2.584215029693	1
8	10	2.890644152956	2
8	12	4.105011874399	3
8	14	4.43652671046	4
8	15	4.565747219545	3
8	18	6.154199338209	4
8	19	6.45496465819	3
8	22	7.028438732528	4
8	24	8.681397244445	5
8	25	10.27944141133	4
8	27	10.737616055825	3
8	30	11.105846725595	4
8	32	11.179874476379	5
8	49	22.216625038447	4
8	51	22.525892000462	3
8	53	23.242021797457	2
8	56	23.799026840059	3
9	2	1.199993199098	0
9	5	2.540824900056	0.295185812921
9	15	4.565747219545	1.981532189852
9	19	6.45496465819	3.564320505234
9	25	10.27944141133	6.174429536931
9	27	10.737616055825	6.301089345365
9	49	22.216625038447	16.062425700238
9	51	22.525892000462	15.497453267934
9	53	23.242021797457	14.560624553012
