version 3
run Net5SaturatedQueue-0-20211207-20:10:02-304016
attr configname Net5SaturatedQueue
attr datetime 20211207-20:10:02
attr datetimef 20211207-201002
attr experiment Net5SaturatedQueue
attr inifile omnetpp.ini
attr iterationvars ""
attr iterationvarsd ""
attr iterationvarsf ""
attr measurement ""
attr network networks.Net5
attr processid 304016
attr repetition 0
attr replication #0
attr resultdir results
attr runnumber 0
attr seedset 0
config cmdenv-redirect-output true
config network networks.Net5
config sim-time-limit 200s
config **.frameCapacity 10
config **.destAddresses "\"1 4\""
config **.sendIaTime "uniform(100ms, 500ms)"
config **.app.packetLength "intuniform(50 bytes, 4096 bytes)"
config **.channel.*.result-recording-modes -vector
config **.result-recording-modes all
config **.appType "\"App\""
config **.app.packetLength "4096 bytes"

vector 0 Net5.rte[0].queue[0] qlen:vector ETV
attr interpolationmode sample-hold
attr recordingmode vector
attr title "queue length"
vector 1 Net5.rte[0].queue[0] busy:vector ETV
attr interpolationmode sample-hold
attr recordingmode vector
attr title "server busy state"
vector 2 Net5.rte[0].queue[1] qlen:vector ETV
attr interpolationmode sample-hold
attr recordingmode vector
attr title "queue length"
vector 3 Net5.rte[0].queue[1] busy:vector ETV
attr interpolationmode sample-hold
attr recordingmode vector
attr title "server busy state"
vector 4 Net5.rte[1].queue[0] qlen:vector ETV
attr interpolationmode sample-hold
attr recordingmode vector
attr title "queue length"
vector 5 Net5.rte[1].queue[0] busy:vector ETV
attr interpolationmode sample-hold
attr recordingmode vector
attr title "server busy state"
vector 6 Net5.rte[1].queue[1] qlen:vector ETV
attr interpolationmode sample-hold
attr recordingmode vector
attr title "queue length"
vector 7 Net5.rte[1].queue[1] busy:vector ETV
attr interpolationmode sample-hold
attr recordingmode vector
attr title "server busy state"
vector 8 Net5.rte[1].queue[2] qlen:vector ETV
attr interpolationmode sample-hold
attr recordingmode vector
attr title "queue length"
vector 9 Net5.rte[1].queue[2] busy:vector ETV
attr interpolationmode sample-hold
attr recordingmode vector
attr title "server busy state"
vector 10 Net5.rte[2].queue[0] qlen:vector ETV
attr interpolationmode sample-hold
attr recordingmode vector
attr title "queue length"
vector 11 Net5.rte[2].queue[0] busy:vector ETV
attr interpolationmode sample-hold
attr recordingmode vector
attr title "server busy state"
vector 12 Net5.rte[2].queue[1] qlen:vector ETV
attr interpolationmode sample-hold
attr recordingmode vector
attr title "queue length"
vector 13 Net5.rte[2].queue[1] busy:vector ETV
attr interpolationmode sample-hold
attr recordingmode vector
attr title "server busy state"
vector 14 Net5.rte[2].queue[2] qlen:vector ETV
attr interpolationmode sample-hold
attr recordingmode vector
attr title "queue length"
vector 15 Net5.rte[2].queue[2] busy:vector ETV
attr interpolationmode sample-hold
attr recordingmode vector
attr title "server busy state"
vector 16 Net5.rte[2].queue[3] qlen:vector ETV
attr interpolationmode sample-hold
attr recordingmode vector
attr title "queue length"
vector 17 Net5.rte[2].queue[3] busy:vector ETV
attr interpolationmode sample-hold
attr recordingmode vector
attr title "server busy state"
vector 18 Net5.rte[3].queue[0] qlen:vector ETV
attr interpolationmode sample-hold
attr recordingmode vector
attr title "queue length"
vector 19 Net5.rte[3].queue[0] busy:vector ETV
attr interpolationmode sample-hold
attr recordingmode vector
attr title "server busy state"
vector 20 Net5.rte[3].queue[1] qlen:vector ETV
attr interpolationmode sample-hold
attr recordingmode vector
attr title "queue length"
vector 21 Net5.rte[3].queue[1] busy:vector ETV
attr interpolationmode sample-hold
attr recordingmode vector
attr title "server busy state"
vector 22 Net5.rte[3].queue[2] qlen:vector ETV
attr interpolationmode sample-hold
attr recordingmode vector
attr title "queue length"
vector 23 Net5.rte[3].queue[2] busy:vector ETV
attr interpolationmode sample-hold
attr recordingmode vector
attr title "server busy state"
vector 24 Net5.rte[4].queue[0] qlen:vector ETV
attr interpolationmode sample-hold
attr recordingmode vector
attr title "queue length"
vector 25 Net5.rte[4].queue[0] busy:vector ETV
attr interpolationmode sample-hold
attr recordingmode vector
attr title "server busy state"
vector 26 Net5.rte[4].queue[1] qlen:vector ETV
attr interpolationmode sample-hold
attr recordingmode vector
attr title "queue length"
vector 27 Net5.rte[4].queue[1] busy:vector ETV
attr interpolationmode sample-hold
attr recordingmode vector
attr title "server busy state"
vector 28 Net5.rte[4].queue[1] txBytes:vector ETV
attr interpolationmode none
attr recordingmode vector
attr title "transmitting packet byte length"
attr unit bytes
vector 29 Net5.rte[0].queue[1] txBytes:vector ETV
attr interpolationmode none
attr recordingmode vector
attr title "transmitting packet byte length"
attr unit bytes
vector 30 Net5.rte[2].queue[2] txBytes:vector ETV
attr interpolationmode none
attr recordingmode vector
attr title "transmitting packet byte length"
attr unit bytes
vector 31 Net5.rte[1].queue[2] txBytes:vector ETV
attr interpolationmode none
attr recordingmode vector
attr title "transmitting packet byte length"
attr unit bytes
vector 32 Net5.rte[3].queue[0] txBytes:vector ETV
attr interpolationmode none
attr recordingmode vector
attr title "transmitting packet byte length"
attr unit bytes
vector 33 Net5.rte[2].queue[3] txBytes:vector ETV
attr interpolationmode none
attr recordingmode vector
attr title "transmitting packet byte length"
attr unit bytes
vector 34 Net5.rte[3].queue[1] txBytes:vector ETV
attr interpolationmode none
attr recordingmode vector
attr title "transmitting packet byte length"
attr unit bytes
vector 35 Net5.rte[0].queue[0] txBytes:vector ETV
attr interpolationmode none
attr recordingmode vector
attr title "transmitting packet byte length"
attr unit bytes
vector 36 Net5.rte[2].queue[2] rxBytes:vector ETV
attr interpolationmode none
attr recordingmode vector
attr title "received packet byte length"
attr unit bytes
vector 37 Net5.rte[2].queue[3] rxBytes:vector ETV
attr interpolationmode none
attr recordingmode vector
attr title "received packet byte length"
attr unit bytes
vector 38 Net5.rte[4].app endToEndDelay:vector ETV
attr interpolationmode none
attr recordingmode vector
attr title "end-to-end delay of arrived packets"
attr unit s
vector 39 Net5.rte[4].app hopCount:vector ETV
attr interpolationmode none
attr recordingmode vector
attr title "hop count of arrived packets"
vector 40 Net5.rte[4].app sourceAddress:vector ETV
attr interpolationmode none
attr recordingmode vector
attr title "source address of arrived packets"
vector 41 Net5.rte[2].queue[0] rxBytes:vector ETV
attr interpolationmode none
attr recordingmode vector
attr title "received packet byte length"
attr unit bytes
vector 42 Net5.rte[1].app endToEndDelay:vector ETV
attr interpolationmode none
attr recordingmode vector
attr title "end-to-end delay of arrived packets"
attr unit s
vector 43 Net5.rte[1].app hopCount:vector ETV
attr interpolationmode none
attr recordingmode vector
attr title "hop count of arrived packets"
vector 44 Net5.rte[1].app sourceAddress:vector ETV
attr interpolationmode none
attr recordingmode vector
attr title "source address of arrived packets"
vector 45 Net5.rte[4].queue[1] rxBytes:vector ETV
attr interpolationmode none
attr recordingmode vector
attr title "received packet byte length"
attr unit bytes
vector 46 Net5.rte[1].queue[2] rxBytes:vector ETV
attr interpolationmode none
attr recordingmode vector
attr title "received packet byte length"
attr unit bytes
vector 47 Net5.rte[1].queue[0] rxBytes:vector ETV
attr interpolationmode none
attr recordingmode vector
attr title "received packet byte length"
attr unit bytes
vector 48 Net5.rte[4].queue[0] rxBytes:vector ETV
attr interpolationmode none
attr recordingmode vector
attr title "received packet byte length"
attr unit bytes
vector 49 Net5.rte[1].queue[1] rxBytes:vector ETV
attr interpolationmode none
attr recordingmode vector
attr title "received packet byte length"
attr unit bytes
vector 50 Net5.rte[2].queue[2] drop:vector ETV
attr interpolationmode none
attr recordingmode vector
attr title "dropped packet byte length"
attr unit bytes
0	0	0	0
0	1291	11.018701140493	1
0	1292	11.02766240084	0
0	1982	16.696273893771	1
0	1990	16.723889026317	0
0	2012	16.894887810574	1
0	2021	16.97528911619	0
0	2530	21.145608005114	1
0	2541	21.287246282322	0
0	3350	28.168319554256	1
0	3351	28.16864223787	0
0	3556	29.947455411406	1
0	3577	30.120424558014	0
0	3794	31.663902875969	1
0	3812	31.814921057307	0
0	5087	42.207226552909	1
0	5089	42.247631076655	0
0	5581	46.690781843292	1
0	5605	46.862735038998	0
0	6456	54.062200456859	1
0	6461	54.096616141709	0
0	7370	61.22316685198	1
0	7390	61.335077810443	0
0	7703	63.675765543524	1
0	7713	63.72024248558	0
0	7887	65.177545211371	1
0	7891	65.237203069625	0
0	8273	68.320103842392	1
0	8274	68.324204020398	0
0	8773	72.179700090921	1
0	8774	72.182784024119	0
0	9588	78.462727018723	1
0	9589	78.494425658087	0
0	9608	78.599801092872	1
0	9625	78.705540752595	2
0	9629	78.758972705256	1
0	9668	79.113183892831	0
0	9786	80.105483694559	1
0	9791	80.215753299722	0
0	10375	85.116235828211	1
0	10401	85.310622818271	0
0	10709	87.915736637447	1
0	10710	87.959077951656	0
0	11178	91.8282732035	1
0	11193	91.933837539352	0
0	11347	93.080759094094	1
0	11356	93.239961016404	0
0	11695	95.813146609997	1
0	11702	95.932227560595	0
0	11827	96.982150621616	1
0	11852	97.120492542031	0
0	12503	102.529605811366	1
0	12522	102.71037031597	0
0	12532	102.827995823694	1
0	12559	103.036630284505	2
0	12570	103.090402506003	1
0	12582	103.246747257154	0
0	13302	109.30861169314	1
0	13306	109.328624039052	0
0	13996	115.140596176499	1
0	14010	115.224366040033	0
0	15850	130.07143807132	1
0	15851	130.107915125844	0
0	16211	132.749789580519	1
0	16213	132.780943174624	0
0	16635	136.216667540001	1
0	16642	136.297270250921	0
0	16665	136.480386199152	1
0	16682	136.590381190919	0
0	17315	141.854243415037	1
0	17348	142.075988073835	2
0	17349	142.091896575807	1
0	17380	142.41536847474	0
0	17495	143.300900878014	1
0	17509	143.379333623809	0
0	17539	143.701352767928	1
0	17540	143.705453830687	0
0	18393	150.591054730119	1
0	18406	150.717282526466	0
0	19062	156.577369683052	1
0	19085	156.691430510024	2
0	19086	156.693038232038	1
0	19106	156.997499063227	0
0	19124	157.149207996766	1
0	19145	157.267278628613	2
0	19154	157.36977549428	1
0	19174	157.533686839558	0
0	20142	165.520079650174	1
0	20161	165.63561821338	0
0	20184	165.881798302758	1
0	20188	165.916149690642	0
0	20216	166.195810820072	1
0	20224	166.283507835512	0
0	20576	169.423216816412	1
0	20584	169.49962609328	0
0	20831	171.702435859853	1
0	20835	171.71081483404	0
0	22626	186.111734485815	1
0	22649	186.325287943866	0
0	22743	187.032754751298	1
0	22762	187.113927830127	0
0	23083	189.468301175444	1
0	23090	189.505852304912	0
0	23579	193.249353034052	1
0	23583	193.273136259182	0
0	23986	196.154882332963	1
0	23994	196.197135435067	0
1	0	0	0
1	35	0.619861760642	1
1	59	0.920160965061	0
1	66	0.964700049627	1
1	67	0.978036171776	0
1	96	1.190871389489	1
1	103	1.387035342234	0
1	187	2.118915774766	1
1	205	2.211701135249	0
1	211	2.244574775174	1
1	248	2.516593834043	0
1	287	2.843128972873	1
1	310	3.084124995821	0
1	352	3.48480290547	1
1	372	3.634337721907	0
1	382	3.746669813152	1
1	389	3.771828738625	0
1	421	3.975068710651	1
1	432	4.193554116071	0
1	479	4.527327069081	1
1	507	4.873593332822	0
1	519	4.933291748259	1
1	553	5.261398186095	0
1	563	5.3129309793	1
1	567	5.370247929813	0
1	596	5.593774594553	1
1	607	5.679844602749	0
1	672	6.228636637238	1
1	693	6.470105572319	0
1	716	6.647855369375	1
1	755	6.9737864114	0
1	765	7.043550623862	1
1	816	7.392086865841	0
1	884	7.950702442789	1
1	911	8.177984013882	0
1	991	8.756206637343	1
1	997	8.882852506545	0
1	1162	10.008278130463	1
1	1204	10.345275316398	0
1	1240	10.664276717886	1
1	1330	11.304883493171	0
1	1343	11.482238625087	1
1	1348	11.517328705351	0
1	1503	12.77250543088	1
1	1519	12.890828046542	0
1	1650	13.913680896445	1
1	1668	14.073336032527	0
1	1700	14.292111763826	1
1	1714	14.419608874868	0
1	1795	15.131248630585	1
1	1831	15.499268852442	0
1	1971	16.57908333121	1
1	2070	17.345390151431	0
1	2078	17.436185043026	1
1	2082	17.450372407014	0
1	2150	18.109703928791	1
1	2207	18.427500882129	0
1	2220	18.603556579724	1
1	2267	18.982075450932	0
1	2320	19.457987385429	1
1	2355	19.745801709538	0
1	2498	20.935777985118	1
1	2554	21.444158528033	0
1	2707	22.804266851583	1
1	2747	23.16784169939	0
1	2753	23.178457804584	1
1	2757	23.245800492315	0
1	2835	23.904683820346	1
1	2852	24.080512551374	0
1	2867	24.219578080905	1
1	2878	24.266396382066	0
1	2905	24.502331939248	1
1	2934	24.711264519582	0
1	3184	26.942490257139	1
1	3204	27.144518320332	0
1	3234	27.338982924076	1
1	3262	27.534863129541	0
1	3288	27.834482524732	1
1	3384	28.454943243154	0
1	3427	28.850189907292	1
1	3471	29.232113745857	0
1	3536	29.823057408819	1
1	3581	30.208102467462	0
1	3630	30.525354500675	1
1	3643	30.671200602475	0
1	3646	30.678934057058	1
1	3669	30.9031889905	0
1	3693	31.04723872021	1
1	3728	31.285491852787	0
1	3775	31.539591613507	1
1	3853	32.039081408322	0
1	3889	32.323749142515	1
1	3901	32.54015373455	0
1	3943	32.812955794672	1
1	3976	33.072868302938	0
1	4055	33.670838169476	1
1	4090	33.931318172301	0
1	4102	34.000862853417	1
1	4113	34.102917291706	0
1	4180	34.669958691393	1
1	4198	34.800955352218	0
1	4274	35.454980814271	1
1	4286	35.628634149488	0
1	4322	35.875923115947	1
1	4342	36.01808050311	0
1	4365	36.207998420485	1
1	4370	36.26219415092	0
1	4434	36.817970272526	1
1	4489	37.187125483502	0
1	4511	37.359891497157	1
1	4535	37.553123394678	0
1	4594	38.081513190549	1
1	4598	38.110455413085	0
1	4614	38.252685063798	1
1	4662	38.632149759272	0
1	4723	39.179931895622	1
1	4754	39.494323881603	0
1	4783	39.690300911759	1
1	4811	39.882776149867	0
1	4868	40.412415306644	1
1	4904	40.685474772205	0
1	5066	42.097150435952	1
1	5144	42.624825793891	0
1	5414	45.110316381047	1
1	5430	45.252568350636	0
1	5442	45.407894482	1
1	5460	45.583439465749	0
1	5463	45.587087602077	1
1	5478	45.756106398391	0
1	5572	46.548059305737	1
1	5648	47.224039908567	0
1	5693	47.686211682206	1
1	5712	47.865539963018	0
1	5718	47.880404671563	1
1	5719	47.898848244748	0
1	5828	48.642991262583	1
1	5837	48.746180689991	0
1	5855	48.959798203317	1
1	5892	49.255462868833	0
1	5908	49.435035566521	1
1	5949	49.807595744854	0
1	6005	50.292812877522	1
1	6023	50.457764629493	0
1	6064	50.787766211388	1
1	6079	50.902967606973	0
1	6107	51.064266248422	1
1	6108	51.101153394792	0
1	6132	51.264187430406	1
1	6174	51.615844892463	0
1	6317	52.789459247144	1
1	6357	53.12229480631	0
1	6391	53.304430451991	1
1	6411	53.573139125929	0
1	6422	53.711098170934	1
1	6462	54.105412307382	0
1	6481	54.168495751732	1
1	6512	54.440420228174	0
1	6519	54.492195071933	1
1	6541	54.694979794539	0
1	6554	54.787300894969	1
1	6555	54.808676523378	0
1	6615	55.184876024631	1
1	6631	55.313981036925	0
1	6673	55.648513127585	1
1	6697	55.838056310469	0
1	6835	56.871890512668	1
1	6857	56.935922815469	0
1	6894	57.292673407123	1
1	6932	57.63988549513	0
1	7015	58.259099620302	1
1	7031	58.359073245206	0
1	7081	58.818866117392	1
1	7101	59.020799598159	0
1	7185	59.692967382353	1
1	7207	59.866242387863	0
1	7220	60.057102822699	1
1	7241	60.209380529507	0
1	7262	60.357812073455	1
1	7283	60.551138553402	0
1	7351	60.964693027922	1
1	7443	61.656185148712	0
1	7495	62.02421073271	1
1	7503	62.090607596175	0
1	7552	62.45208665533	1
1	7572	62.531157563958	0
1	7582	62.64432450952	1
1	7589	62.741838991333	0
1	7665	63.401783455256	1
1	7727	63.871858115402	0
1	7808	64.46909135133	1
1	7838	64.73609754159	0
1	7851	64.860670429375	1
1	7928	65.469781256607	0
1	7939	65.638377898466	1
1	7954	65.727663709166	0
1	8039	66.424782951828	1
1	8081	66.797059382881	0
1	8179	67.552880431339	1
1	8222	67.836343963825	0
1	8235	67.95845377678	1
1	8284	68.430514667884	0
1	8325	68.774655001144	1
1	8374	69.080439986305	0
1	8446	69.748130054305	1
1	8509	70.118704001679	0
1	8726	71.841246881707	1
1	8783	72.281149747771	0
1	8831	72.53583968086	1
1	8864	72.815614498709	0
1	8887	72.990638773979	1
1	8944	73.354497369066	0
1	8954	73.446318922283	1
1	8990	73.820203254588	0
1	8994	73.860846513973	1
1	9007	73.953348127177	0
1	9033	74.202875892537	1
1	9060	74.400269416828	0
1	9070	74.464039270578	1
1	9094	74.711466898534	0
1	9097	74.716053102164	1
1	9116	74.962156576148	0
1	9136	75.096988760678	1
1	9165	75.334958145975	0
1	9248	75.984802749285	1
1	9257	76.045335502302	0
1	9298	76.349676209686	1
1	9330	76.574214890408	0
1	9371	76.909458974746	1
1	9380	77.004608895894	0
1	9556	78.159509285537	1
1	9694	79.217602891785	0
1	9762	79.880458597465	1
1	9817	80.322253112061	0
1	9846	80.63594138352	1
1	9856	80.675098508128	0
1	9946	81.454917623473	1
1	9957	81.589792163788	0
1	10063	82.438318573588	1
1	10096	82.766141264144	0
1	10157	83.345470903066	1
1	10192	83.648512997856	0
1	10203	83.695529149098	1
1	10205	83.725795525606	0
1	10358	84.924537352936	1
1	10448	85.690182096171	0
1	10482	86.002681993877	1
1	10506	86.176808241227	0
1	10523	86.285065129769	1
1	10534	86.395537404025	0
1	10546	86.508513113108	1
1	10556	86.607351748893	0
1	10569	86.693875241928	1
1	10570	86.70796802349	0
1	10696	87.783154638201	1
1	10733	88.080427204969	0
1	10751	88.248143597037	1
1	10766	88.407704150692	0
1	10789	88.619229440667	1
1	10820	88.847646000879	0
1	10897	89.423385487773	1
1	10899	89.481932009831	0
1	10907	89.562240895719	1
1	10924	89.657390816867	0
1	10986	90.208680997041	1
1	10991	90.251999748419	0
1	11023	90.653632643443	1
1	11045	90.867294345107	0
1	11123	91.421952030712	1
1	11128	91.465081617236	0
1	11162	91.707596374952	1
1	11233	92.225813490231	0
1	11245	92.391397614029	1
1	11268	92.536581638843	0
1	11275	92.561356635854	1
1	11292	92.759412237131	0
1	11311	92.88158820206	1
1	11383	93.402926537416	0
1	11397	93.498259593264	1
1	11409	93.621878824815	0
1	11435	93.789148585775	1
1	11466	94.064478029575	0
1	11484	94.172985004165	1
1	11510	94.353826603803	0
1	11574	94.820424018146	1
1	11592	94.971945065541	0
1	11660	95.665883447321	1
1	11742	96.288141231848	0
1	11772	96.409824450963	1
1	11789	96.613554997835	0
1	11815	96.807613874876	1
1	11896	97.449450221706	0
1	11902	97.499468521677	1
1	11914	97.627816874558	0
1	11930	97.731423777152	1
1	11936	97.787700320972	0
1	12017	98.416006883696	1
1	12038	98.676203139241	0
1	12151	99.505192831993	1
1	12172	99.757633328558	0
1	12276	100.591410920486	1
1	12298	100.697910732825	0
1	12390	101.562773315326	1
1	12394	101.652721203012	0
1	12491	102.393235439618	1
1	12584	103.270771193508	0
1	12699	104.059634179714	1
1	12716	104.198292017093	0
1	12779	104.868269448913	1
1	12786	104.903643276457	0
1	12853	105.313665905315	1
1	12872	105.574240490567	0
1	12900	105.801862305402	1
1	12902	105.869867070119	0
1	12927	106.152811737637	1
1	12956	106.379147484464	0
1	13003	106.811945147812	1
1	13036	107.074033051889	0
1	13058	107.194288904965	1
1	13070	107.373617185777	0
1	13074	107.39039378576	1
1	13110	107.729377202654	0
1	13139	107.997160271183	1
1	13145	108.030358702916	0
1	13175	108.248111115955	1
1	13203	108.451652497974	0
1	13217	108.574869687017	1
1	13234	108.644860682693	0
1	13270	109.058307463862	1
1	13315	109.399750023847	0
1	13347	109.67072019428	1
1	13381	110.035619196059	0
1	13393	110.10875286106	1
1	13400	110.174393065113	0
1	13505	111.073808861896	1
1	13515	111.172363750401	0
1	13579	111.595727564953	1
1	13621	111.97538142528	0
1	13729	112.786738166212	1
1	13773	113.153907146229	0
1	13885	114.208579582069	1
1	13895	114.287934237977	0
1	13933	114.597451921646	1
1	13951	114.683143600135	0
1	13986	115.019784251322	1
1	14019	115.290762903498	0
1	14192	116.718676563447	1
1	14209	116.963739630738	0
1	14228	117.12813708652	1
1	14238	117.173347486429	0
1	14419	118.552895939818	1
1	14427	118.630169782341	0
1	14510	119.193500862086	1
1	14530	119.323740863499	0
1	14601	119.796406522395	1
1	14625	119.974032319529	0
1	14643	120.070355975537	1
1	14668	120.266803675562	0
1	14726	120.803948295119	1
1	14729	120.814919856603	0
1	14860	121.840310801941	1
1	14864	121.863483496455	0
1	14897	122.259472046702	1
1	14926	122.390563289954	0
1	15020	123.199328881505	1
1	15041	123.349620357354	0
1	15085	123.728891357875	1
1	15103	123.911057111485	0
1	15267	125.240008215236	1
1	15298	125.51467558205	0
1	15449	126.774029945771	1
1	15463	126.891217572314	0
1	15723	128.986456198526	1
1	15756	129.277864654846	0
1	15759	129.29809502382	1
1	15763	129.327793905769	0
1	15826	129.864270794952	1
1	15855	130.113873818719	0
1	15931	130.669365891164	1
1	15955	130.83223682975	0
1	15984	131.142033346465	1
1	16017	131.391730952659	0
1	16026	131.452631891614	1
1	16055	131.586466025237	0
1	16169	132.404126787095	1
1	16221	132.86228406149	0
1	16336	133.700314553178	1
1	16365	134.00080292245	0
1	16433	134.635470835029	1
1	16464	134.849037954266	0
1	16611	136.015982114246	1
1	16722	136.923878827071	0
1	16756	137.285162703602	1
1	16763	137.327819377993	0
1	16806	137.755982650353	1
1	16861	138.137622741638	0
1	17003	139.349674299826	1
1	17025	139.506113633404	0
1	17064	139.825704450627	1
1	17083	139.990183290465	0
1	17115	140.135656449759	1
1	17147	140.463195393036	0
1	17150	140.483313581163	1
1	17181	140.749468529584	0
1	17185	140.829989404047	1
1	17195	140.880685584699	0
1	17305	141.733807508742	1
1	17416	142.662796102696	0
1	17463	143.035526503159	1
1	17553	143.739408921832	0
1	17595	144.062224930899	1
1	17617	144.263590917106	0
1	17637	144.405662144163	1
1	17650	144.480476843595	0
1	17654	144.523167451659	1
1	17674	144.682349675608	0
1	17758	145.389950511885	1
1	17782	145.644755569115	0
1	17941	146.755873162208	1
1	17946	146.83371449929	0
1	18051	147.68329404481	1
1	18071	147.81306113409	0
1	18097	148.097481401174	1
1	18105	148.25950109792	0
1	18121	148.322468674837	1
1	18130	148.416672771719	0
1	18228	149.279241287151	1
1	18249	149.388389407434	0
1	18371	150.458883337026	1
1	18408	150.734969440238	0
1	18430	150.849047155866	1
1	18445	150.962829815052	0
1	18543	151.902006208805	1
1	18576	152.12285617489	0
1	18599	152.392033948751	1
1	18617	152.608911452919	0
1	18644	152.841554473622	1
1	18649	152.88071159823	0
1	18688	153.304422330393	1
1	18717	153.573320169185	0
1	18769	153.931861103887	1
1	18771	154.026348948049	0
1	18845	154.674335114939	1
1	18863	154.783104905516	0
1	18872	154.865912327358	1
1	18897	155.079857776302	0
1	18917	155.335849122891	1
1	18954	155.650335691298	0
1	18961	155.673131199835	1
1	18990	155.936354093031	0
1	19011	156.124444027154	1
1	19026	156.257237754084	0
1	19049	156.387915323863	1
1	19182	157.60405616494	0
1	19195	157.724765798452	1
1	19225	158.025065002871	0
1	19228	158.033298866081	1
1	19240	158.162782208081	0
1	19250	158.247626447494	1
1	19257	158.288107726074	0
1	19297	158.660162803533	1
1	19331	158.952706248972	0
1	19402	159.599989641274	1
1	19426	159.704597805081	0
1	19554	160.821270747671	1
1	19557	160.85068588234	0
1	19792	162.644540929704	1
1	19796	162.649553798313	0
1	19914	163.57498258157	1
1	19946	163.908669382575	0
1	20001	164.321951529201	1
1	20042	164.682310574504	0
1	20083	165.01407436645	1
1	20093	165.157177577879	0
1	20122	165.38885266241	1
1	20263	166.608398470844	0
1	20269	166.662677840239	1
1	20290	166.935264393668	0
1	20313	167.135190633873	1
1	20317	167.178603967677	0
1	20359	167.629884415681	1
1	20367	167.670838606394	0
1	20471	168.521378758086	1
1	20505	168.904532168197	0
1	20546	169.144279916586	1
1	20605	169.72586725768	0
1	20645	170.11485119043	1
1	20681	170.335795738941	0
1	20789	171.330498896727	1
1	20851	171.802938117537	0
1	20854	171.812369462849	1
1	20858	171.862498148941	0
1	21152	174.482704879345	1
1	21162	174.582583921823	0
1	21230	175.069386350831	1
1	21242	175.180709866926	0
1	21245	175.185182354042	1
1	21256	175.301802486026	0
1	21269	175.365749099573	1
1	21299	175.601543089059	0
1	21315	175.674302517345	1
1	21325	175.74930638163	0
1	21403	176.31274943771	1
1	21421	176.414520128719	0
1	21440	176.63764470136	1
1	21465	176.737239996558	0
1	21490	176.884782437144	1
1	21497	176.968487884675	0
1	21685	178.361136134529	1
1	21738	178.734452972274	0
1	21836	179.437680050918	1
1	21843	179.450164931228	0
1	21973	180.660276703258	1
1	21980	180.763844460373	0
1	22015	180.998251913396	1
1	22046	181.324655867554	0
1	22085	181.622013586854	1
1	22103	181.873413676727	0
1	22121	182.062353511063	1
1	22133	182.103686031482	0
1	22179	182.455499724207	1
1	22224	182.819642066573	0
1	22228	182.852198363004	1
1	22249	183.039849897356	0
1	22260	183.166961632484	1
1	22280	183.306470711702	0
1	22324	183.633348523175	1
1	22326	183.68811174817	0
1	22369	184.090790543055	1
1	22370	184.122097326256	0
1	22396	184.28177527385	1
1	22405	184.363399907996	0
1	22442	184.737934820542	1
1	22457	184.856824930764	0
1	22604	185.978359603139	1
1	22671	186.465080770364	0
1	22723	186.805494537021	1
1	22789	187.290702385421	0
1	22884	187.985738641864	1
1	22904	188.135746370434	0
1	22946	188.457628062556	1
1	22950	188.468505041614	0
1	23042	189.146155336595	1
1	23094	189.535834934141	0
1	23147	189.961130706037	1
1	23176	190.11104385218	0
1	23260	190.729608353789	1
1	23291	190.923691493149	0
1	23394	191.834834614027	1
1	23419	192.019932422861	0
1	23538	192.961960075705	1
1	23616	193.5510194285	0
1	23737	194.476325416753	1
1	23767	194.624630661644	0
1	23777	194.706902806835	1
1	23831	195.028577639663	0
1	23929	195.787184709312	1
1	23933	195.794940468292	0
1	23967	196.002295636294	1
1	23998	196.23808962578	0
1	24044	196.545800027252	1
1	24064	196.671500072188	0
1	24073	196.74039295083	1
1	24086	196.819369277032	0
1	24155	197.389200294298	1
1	24174	197.56852857511	0
1	24248	198.107403208875	1
1	24273	198.367221134714	0
1	24333	198.877908174228	1
1	24335	198.933522641062	0
2	0	0	0
2	1033	9.107878950613	1
2	1040	9.136494220806	0
2	1414	12.058769679725	1
2	1421	12.101133431049	0
2	1594	13.518324761375	1
2	1602	13.573532794324	0
2	2993	25.271686091369	1
2	2994	25.310813204509	0
2	4037	33.505110443013	1
2	4056	33.677039434183	0
2	4978	41.375103271195	1
2	4995	41.449687547949	0
2	5119	42.508983065842	1
2	5136	42.609736128984	0
2	5165	42.878272495328	1
2	5190	43.064027621068	0
2	5347	44.479736217859	1
2	5348	44.499872023398	0
2	6758	56.298241356761	1
2	6763	56.355993002981	0
2	6949	57.696703878046	1
2	6955	57.835974452465	0
2	6977	57.976144141705	1
2	6999	58.141967416957	0
2	7326	60.806512971689	1
2	7328	60.826530863516	0
2	7471	61.858288498782	1
2	7478	61.92011541467	0
2	8405	69.354879412054	1
2	8426	69.584061560697	0
2	8597	70.848540470561	1
2	8598	70.854937948099	0
2	8664	71.447455998229	1
2	8679	71.516033603253	0
2	9185	75.486723918652	1
2	9186	75.499016498717	0
2	9207	75.700147004237	1
2	9230	75.777361178921	0
2	9344	76.666957702951	1
2	9364	76.816096871912	0
2	9508	77.883876161274	1
2	9509	77.892638962208	0
2	9533	78.02259744927	1
2	9557	78.161208996452	0
2	10007	82.007011797463	1
2	10008	82.018691151852	0
2	10120	82.989263775104	1
2	10121	83.012620760591	0
2	11990	98.253038302526	1
2	12002	98.335500489548	0
2	12662	103.907931131403	1
2	12688	104.032639386667	0
2	13116	107.774021097925	1
2	13133	107.929920637982	0
2	13804	113.495839450415	1
2	13818	113.626289895762	0
2	13846	113.86444574045	1
2	13859	113.94494335407	0
2	14064	115.608485800961	1
2	14065	115.650552596046	0
2	14368	118.18538152762	1
2	14375	118.230590339731	0
2	14490	119.052081982514	1
2	14500	119.167009141143	0
2	14978	122.78365519224	1
2	14982	122.847973925714	0
2	15226	124.856789028554	1
2	15234	124.936561776027	0
2	15332	125.779496486953	1
2	15339	125.787612244898	0
2	15402	126.419320074844	1
2	15416	126.483761078375	0
2	15500	127.125579165204	1
2	15513	127.274029016271	0
2	15551	127.546227531696	1
2	15559	127.597895619091	0
2	16980	139.136099724473	1
2	16993	139.260962059572	0
2	19463	160.090806103966	1
2	19468	160.143202792304	0
2	19532	160.685835682044	1
2	19551	160.815997634954	0
2	19649	161.602754431127	1
2	19663	161.664183972818	0
2	19679	161.725960612486	1
2	19680	161.732513402674	0
2	19741	162.203774568069	1
2	19742	162.222199865359	0
2	20495	168.783736178001	1
2	20515	168.963175133134	0
2	21622	177.805698568189	1
2	21645	177.99421337946	0
2	21650	178.017365239841	1
2	21660	178.145860029645	0
2	22566	185.650687469917	1
2	22574	185.782635113523	0
2	22994	188.78426039601	1
2	23020	188.93411706156	0
2	23307	191.117304647438	1
2	23309	191.217346741936	0
2	23687	194.081137226431	1
2	23703	194.205243032383	0
2	24296	198.500444241241	1
2	24298	198.577207990657	0
2	24311	198.705760321673	1
2	24334	198.911966341833	0
3	0	0	0
3	6	0.128414423484	1
3	25	0.459169824409	0
3	120	1.477395698614	1
3	132	1.619081519106	0
3	167	1.905792990978	1
3	175	2.053436690913	0
3	243	2.472002357151	1
3	268	2.693933366384	0
3	309	3.032361625135	1
3	322	3.190152338495	0
3	362	3.592480185721	1
3	396	3.813294092559	0
3	438	4.262768379319	1
3	456	4.378947028448	0
3	631	5.940837762226	1
3	632	5.964948555595	0
3	728	6.758120454756	1
3	759	7.014216178917	0
3	809	7.338773137705	1
3	824	7.448621539926	0
3	827	7.478890715541	1
3	867	7.756956120147	0
3	939	8.400417630748	1
3	970	8.653162047723	0
3	1009	8.949100293966	1
3	1060	9.257513646982	0
3	1082	9.498696656155	1
3	1115	9.703498761991	0
3	1136	9.877495552881	1
3	1183	10.175017157541	0
3	1210	10.380835135284	1
3	1225	10.560409345356	0
3	1395	11.953955190446	1
3	1426	12.127850796674	0
3	1451	12.406161785222	1
3	1500	12.77247827907	0
3	1562	13.266702003035	1
3	1610	13.588986044128	0
3	1741	14.675555300435	1
3	1769	14.911915548943	0
3	1841	15.573769821787	1
3	1843	15.589595439056	0
3	1878	15.889399240819	1
3	1918	16.233187503025	0
3	1923	16.263436038607	1
3	1930	16.27991329894	0
3	2038	17.129140202143	1
3	2048	17.179875269271	0
3	2102	17.653442804702	1
3	2124	17.898181321176	0
3	2275	19.051989607699	1
3	2296	19.199447123901	0
3	2358	19.74988893494	1
3	2380	19.863367919946	0
3	2415	20.192591033969	1
3	2444	20.37244451964	0
3	2456	20.452455041837	1
3	2470	20.521808482222	0
3	2563	21.53077874668	1